chemcompute.org
{'UTCtimestamp': '2022-10-04T21:16:45.871789', 'cluster': 'jetstream2', 'clusterJobNumber': '120803', 'status': 'RUNNING', 'nodeList': 'chemcompute-node-0'}
----- GAMESS execution script 'rungms' -----
This job is running on host chemcompute-node-0.novalocal
under operating system Linux at Tue Oct 4 21:16:49 UTC 2022
SLURM has assigned the following compute nodes to this run:
Available scratch disk space (Kbyte units) at beginning of the job is
Filesystem     1K-blocks     Used Available Use% Mounted on
/dev/sda1       62903276 11920568  50982708  19% /
GAMESS temporary binary files will be written to /scratch/120803
GAMESS supplementary output files will be written to /data/slurm/46/460760
Copying input file 460760.inp to your run's scratch directory...
The generated host list is
chemcompute-node-0.novalocal

 Distributed Data Interface kickoff program.
 Initiating 1 compute processes on 1 nodes to run the following command:
 /data/gamess-2019R1-avx2-ddi/gamess.00.x 460760 

          ******************************************************
          *         GAMESS VERSION = 30 JUN 2019 (R1)          *
          *             FROM IOWA STATE UNIVERSITY             *
          * M.W.SCHMIDT, K.K.BALDRIDGE, J.A.BOATZ, S.T.ELBERT, *
          *   M.S.GORDON, J.H.JENSEN, S.KOSEKI, N.MATSUNAGA,   *
          *          K.A.NGUYEN, S.J.SU, T.L.WINDUS,           *
          *       TOGETHER WITH M.DUPUIS, J.A.MONTGOMERY       *
          *         J.COMPUT.CHEM.  14, 1347-1363(1993)        *
          **************** 64 BIT INTEL VERSION ****************

  SINCE 1993, STUDENTS AND POSTDOCS WORKING AT IOWA STATE UNIVERSITY
  AND ALSO IN THEIR VARIOUS JOBS AFTER LEAVING ISU HAVE MADE IMPORTANT
  CONTRIBUTIONS TO THE CODE:
     IVANA ADAMOVIC, CHRISTINE AIKENS, YURI ALEXEEV, POOJA ARORA,
     ANDREY ASADCHEV, ROB BELL, PRADIPTA BANDYOPADHYAY, JONATHAN BENTZ,
     COLLEEN BERTONI, BRETT BODE, KURT BRORSEN, CALEB CARLIN, GALINA CHABAN,
     WEI CHEN, CHEOL HO CHOI, PAUL DAY, ALBERT DEFUSCO, NUWAN DESILVA,
     TIM DUDLEY, DMITRI FEDOROV, ALEX FINDLATER, GRAHAM FLETCHER, 
     MARK FREITAG, KURT GLAESEMANN, ANASTASIA GUNINA,
     DAN KEMP, GRANT MERRILL, NORIYUKI MINEZAWA, JONATHAN MULLIN,
     TAKESHI NAGATA, SEAN NEDD, HEATHER NETZLOFF, BOSILJKA NJEGIC, RYAN OLSON,
     MIKE PAK, BUU PHAM,
     SPENCER PRUITT, LUKE ROSKOP, JIM SHOEMAKER, LYUDMILA SLIPCHENKO,
     TONY SMITH, SAROM SOK LEANG, JIE SONG, TETSUYA TAKETSUGU, SIMON WEBB,
     PENG XU, SOOHAENG YOO, FEDERICO ZAHARIEV

  ADDITIONAL CODE HAS BEEN PROVIDED BY COLLABORATORS IN OTHER GROUPS:
     IOWA STATE UNIVERSITY:
          JOE IVANIC, AARON WEST, LAIMUTIS BYTAUTAS, KLAUS RUEDENBERG
     UNIVERSITY OF TOKYO: KIMIHIKO HIRAO, TAKAHITO NAKAJIMA,
          TAKAO TSUNEDA, MUNEAKI KAMIYA, SUSUMU YANAGISAWA,
          KIYOSHI YAGI, MAHITO CHIBA, SEIKEN TOKURA, NAOAKI KAWAKAMI
     UNIVERSITY OF AARHUS: FRANK JENSEN
     UNIVERSITY OF IOWA: VISVALDAS KAIRYS, HUI LI
     NATIONAL INST. OF STANDARDS AND TECHNOLOGY: WALT STEVENS, DAVID GARMER
     UNIVERSITY OF PISA: BENEDETTA MENNUCCI, JACOPO TOMASI
     UNIVERSITY OF MEMPHIS: HENRY KURTZ, PRAKASHAN KORAMBATH
     UNIVERSITY OF ALBERTA: TOBY ZENG, MARIUSZ KLOBUKOWSKI
     UNIVERSITY OF NEW ENGLAND: MARK SPACKMAN
     MIE UNIVERSITY: HIROAKI UMEDA
     NAT. INST. OF ADVANCED INDUSTRIAL SCIENCE AND TECHNOLOGY: KAZUO KITAURA
     MICHIGAN STATE UNIVERSITY:
          KAROL KOWALSKI, MARTA WLOCH, JEFFREY GOUR, JESSE LUTZ,
          WEI LI, JUN SHEN, J. EMILIANO DEUSTUA, PIOTR PIECUCH
     UNIVERSITY OF MINNESOTA:
          YINAN SHU
     UNIVERSITY OF SILESIA: MONIKA MUSIAL, STANISLAW KUCHARSKI
     FACULTES UNIVERSITAIRES NOTRE-DAME DE LA PAIX:
          OLIVIER QUINET, BENOIT CHAMPAGNE
     UNIVERSITY OF CALIFORNIA - SANTA BARBARA: BERNARD KIRTMAN
     INSTITUTE FOR MOLECULAR SCIENCE:
          KAZUYA ISHIMURA, MICHIO KATOUDA, AND SHIGERU NAGASE
     UNIVERSITY OF NOTRE DAME: ANNA POMOGAEVA, DAN CHIPMAN
     KYUSHU UNIVERSITY:
          HARUYUKI NAKANO,
          FENG LONG GU, JACEK KORCHOWIEC, MARCIN MAKOWSKI, AND YURIKO AOKI,
          HIROTOSHI MORI AND EISAKU MIYOSHI
     PENNSYLVANIA STATE UNIVERSITY:
          TZVETELIN IORDANOV, CHET SWALINA, JONATHAN SKONE,
          SHARON HAMMES-SCHIFFER
     WASEDA UNIVERSITY:
          MASATO KOBAYASHI, TOMOKO AKAMA, TSUGUKI TOUMA,
          TAKESHI YOSHIKAWA, YASUHIRO IKABATA, JUNJI SEINO,
          YUYA NAKAJIMA, HIROMI NAKAI
     NANJING UNIVERSITY: SHUHUA LI
     UNIVERSITY OF NEBRASKA:
          PEIFENG SU, DEJUN SI, NANDUN THELLAMUREGE, YALI WANG, HUI LI
     UNIVERSITY OF ZURICH: ROBERTO PEVERATI, KIM BALDRIDGE
     N. COPERNICUS UNIVERSITY AND JACKSON STATE UNIVERSITY:
          MARIA BARYSZ
     UNIVERSITY OF COPENHAGEN: Jimmy Kromann, CASPER STEINMANN
     TOKYO INSTITUTE OF TECHNOLOGY: HIROYA NAKATA
     NAGOYA UNIVERSITY: YOSHIO NISHIMOTO, STEPHAN IRLE
     MOSCOW STATE UNIVERSITY: VLADIMIR MIRONOV
     A.N.NESMEYANOV INSTITUTE OF ORGANOELEMENT COMPOUNDS OF RUSSIAN ACADEMY OF SCIENCES:
          IGOR S. GERASIMOV

 EXECUTION OF GAMESS BEGUN Tue Oct  4 21:16:49 2022

            ECHO OF THE FIRST FEW INPUT CARDS -
 INPUT CARD>!                                                                               
 INPUT CARD>!   GAMESS Calculation input file                                               
 INPUT CARD>!   molecula de prueba JAAM                                                     
 INPUT CARD>!                                                                               
 INPUT CARD> $CONTRL SCFTYP=RHF MAXIT=200 RUNTYP=OPTIMIZE                                   
 INPUT CARD>         COORD=UNIQUE MULT=1                                                    
 INPUT CARD>         ICHARG=0                                                               
 INPUT CARD>         DFTTYP=B3LYP                                                           
 INPUT CARD>         MOLPLT=.FALSE. PLTORB=.FALSE.  $END                                    
 INPUT CARD> $SYSTEM TIMLIM=2879 MWORDS=250  $END                                           
 INPUT CARD>                                                                                
 INPUT CARD> $FORCE METHOD=SEMINUM NVIB=2 $END                                              
 INPUT CARD> $STATPT OPTTOL=0.0005 NSTEP=999 $END                                           
 INPUT CARD> $STATPT IHREP=0 HSSEND=.TRUE.  $END                                            
 INPUT CARD>                                                                                
 INPUT CARD> $DFT    METHOD=GRID  NLEB=590  $END                                            
 INPUT CARD>                                                                                
 INPUT CARD> $BASIS  GBASIS=N31 NGAUSS=6                                                    
 INPUT CARD>         NDFUNC=1   NPFUNC=0  $END                                              
 INPUT CARD>                                                                                
 INPUT CARD> $SCF    DIRSCF=.T. $END                                                        
 INPUT CARD> $GUESS  GUESS=HUCKEL  $END                                                     
 INPUT CARD>                                                                                
 INPUT CARD> $DATA                                                                          
 INPUT CARD>   molecula de prueba JAAM                                                      
 INPUT CARD>  C1                                                                            
 INPUT CARD>O     8.0    -1.71790    -0.03493     0.11809                                   
 INPUT CARD>C     6.0    -0.57089    -0.45311     0.00051                                   
 INPUT CARD>C     6.0     0.59061     0.47081    -0.03684                                   
 INPUT CARD>C     6.0     1.86589     0.04816    -0.09401                                   
 INPUT CARD>H     1.0    -0.34237    -1.52737    -0.08128                                   
 INPUT CARD>H     1.0     0.34630     1.52375    -0.01140                                   
 INPUT CARD>H     1.0     2.13770    -0.99933    -0.11250                                   
 INPUT CARD>H     1.0     2.67091     0.77323    -0.11712                                   
 INPUT CARD> $END                                                                           
 INPUT CARD>                                                                                
 INPUT CARD>                                                                                
 INPUT CARD>! Customizations after this line are persisted when using Do More Calculations  
  250000000 WORDS OF MEMORY AVAILABLE

     BASIS OPTIONS
     -------------
     GBASIS=N31          IGAUSS=       6      POLAR=POPN31  
     NDFUNC=       1     NFFUNC=       0     DIFFSP=       F
     NPFUNC=       0      DIFFS=       F     BASNAM=        


     RUN TITLE
     ---------
    molecula de prueba JAAM                                                      

 THE POINT GROUP OF THE MOLECULE IS C1      
 THE ORDER OF THE PRINCIPAL AXIS IS     0

 ATOM      ATOMIC                      COORDINATES (BOHR)
           CHARGE         X                   Y                   Z
 O           8.0    -3.2463602743       -0.0660081288        0.2231577419
 C           6.0    -1.0788256691       -0.8562537423        0.0009637603
 C           6.0     1.1160910656        0.8897018923       -0.0696175054
 C           6.0     3.5260208232        0.0910092036       -0.1776531401
 H           1.0    -0.6469854864       -2.8863107819       -0.1535969283
 H           1.0     0.6544121095        2.8794699738       -0.0215428763
 H           1.0     4.0396672440       -1.8884598713       -0.2125941736
 H           1.0     5.0472880379        1.4611928255       -0.2213247077

          INTERNUCLEAR DISTANCES (ANGS.)
          ------------------------------

                1 O          2 C          3 C          4 C          5 H     

   1 O       0.0000000    1.2265119 *  2.3683316 *  3.5910223    2.0394137 *
   2 C       1.2265119 *  0.0000000    1.4846230 *  2.4895988 *  1.1013381 *
   3 C       2.3683316 *  1.4846230 *  0.0000000    1.3447083 *  2.2057085 *
   4 C       3.5910223    2.4895988 *  1.3447083 *  0.0000000    2.7127236 *
   5 H       2.0394137 *  1.1013381 *  2.2057085 *  2.7127236 *  0.0000000  
   6 H       2.5898210 *  2.1793014 *  1.0812110 *  2.1197509 *  3.1286551  
   7 H       3.9810665    2.7654272 *  2.1355382 *  1.0823391 *  2.5358525 *
   8 H       4.4687917    3.4679985    2.1036993 *  1.0836594 *  3.7912928  

                6 H          7 H          8 H     

   1 O       2.5898210 *  3.9810665    4.4687917  
   2 C       2.1793014 *  2.7654272 *  3.4679985  
   3 C       1.0812110 *  2.1355382 *  2.1036993 *
   4 C       2.1197509 *  1.0823391 *  1.0836594 *
   5 H       3.1286551    2.5358525 *  3.7912928  
   6 H       0.0000000    3.0960084    2.4450498 *
   7 H       3.0960084    0.0000000    1.8510276 *
   8 H       2.4450498 *  1.8510276 *  0.0000000  

  * ... LESS THAN  3.000


     ATOMIC BASIS SET
     ----------------
 THE CONTRACTED PRIMITIVE FUNCTIONS HAVE BEEN UNNORMALIZED
 THE CONTRACTED BASIS FUNCTIONS ARE NOW NORMALIZED TO UNITY

  SHELL TYPE  PRIMITIVE        EXPONENT          CONTRACTION COEFFICIENT(S)

 O         

      1   S       1          5484.6716600    0.001831074430
      1   S       2           825.2349460    0.013950172200
      1   S       3           188.0469580    0.068445078098
      1   S       4            52.9645000    0.232714335992
      1   S       5            16.8975704    0.470192897984
      1   S       6             5.7996353    0.358520852987

      2   L       7            15.5396162   -0.110777549525    0.070874268231
      2   L       8             3.5999336   -0.148026262701    0.339752839147
      2   L       9             1.0137618    1.130767015354    0.727158577316

      3   L      10             0.2700058    1.000000000000    1.000000000000

      4   D      11             0.8000000    1.000000000000

 C         

      5   S      12          3047.5248800    0.001834737132
      5   S      13           457.3695180    0.014037322813
      5   S      14           103.9486850    0.068842622264
      5   S      15            29.2101553    0.232184443216
      5   S      16             9.2866630    0.467941348435
      5   S      17             3.1639270    0.362311985337

      6   L      18             7.8682723   -0.119332419775    0.068999066591
      6   L      19             1.8812885   -0.160854151696    0.316423960957
      6   L      20             0.5442493    1.143456437840    0.744308290898

      7   L      21             0.1687145    1.000000000000    1.000000000000

      8   D      22             0.8000000    1.000000000000

 C         

      9   S      23          3047.5248800    0.001834737132
      9   S      24           457.3695180    0.014037322813
      9   S      25           103.9486850    0.068842622264
      9   S      26            29.2101553    0.232184443216
      9   S      27             9.2866630    0.467941348435
      9   S      28             3.1639270    0.362311985337

     10   L      29             7.8682723   -0.119332419775    0.068999066591
     10   L      30             1.8812885   -0.160854151696    0.316423960957
     10   L      31             0.5442493    1.143456437840    0.744308290898

     11   L      32             0.1687145    1.000000000000    1.000000000000

     12   D      33             0.8000000    1.000000000000

 C         

     13   S      34          3047.5248800    0.001834737132
     13   S      35           457.3695180    0.014037322813
     13   S      36           103.9486850    0.068842622264
     13   S      37            29.2101553    0.232184443216
     13   S      38             9.2866630    0.467941348435
     13   S      39             3.1639270    0.362311985337

     14   L      40             7.8682723   -0.119332419775    0.068999066591
     14   L      41             1.8812885   -0.160854151696    0.316423960957
     14   L      42             0.5442493    1.143456437840    0.744308290898

     15   L      43             0.1687145    1.000000000000    1.000000000000

     16   D      44             0.8000000    1.000000000000

 H         

     17   S      45            18.7311370    0.033494604338
     17   S      46             2.8253944    0.234726953484
     17   S      47             0.6401217    0.813757326146

     18   S      48             0.1612778    1.000000000000

 H         

     19   S      49            18.7311370    0.033494604338
     19   S      50             2.8253944    0.234726953484
     19   S      51             0.6401217    0.813757326146

     20   S      52             0.1612778    1.000000000000

 H         

     21   S      53            18.7311370    0.033494604338
     21   S      54             2.8253944    0.234726953484
     21   S      55             0.6401217    0.813757326146

     22   S      56             0.1612778    1.000000000000

 H         

     23   S      57            18.7311370    0.033494604338
     23   S      58             2.8253944    0.234726953484
     23   S      59             0.6401217    0.813757326146

     24   S      60             0.1612778    1.000000000000

 TOTAL NUMBER OF BASIS SET SHELLS             =   24
 NUMBER OF CARTESIAN GAUSSIAN BASIS FUNCTIONS =   68
 NUMBER OF ELECTRONS                          =   30
 CHARGE OF MOLECULE                           =    0
 SPIN MULTIPLICITY                            =    1
 NUMBER OF OCCUPIED ORBITALS (ALPHA)          =   15
 NUMBER OF OCCUPIED ORBITALS (BETA )          =   15
 TOTAL NUMBER OF ATOMS                        =    8
 THE NUCLEAR REPULSION ENERGY IS      102.3777879334

 SELECTED MURRAY-HANDY-LAMING RADIAL GRID

 LEGACY BECKE'S FUZZY CELL METHOD

 SELECTED ORIGINAL BECKE'S PARTITION FUNCTION

     LEBEDEV GRID-BASED DFT OPTIONS
     ------------------------------
     DFTTYP=B3LYP   
     NRAD  =      96     NLEB  =     590
     NRAD0 =      24     NLEB0 =     110
     SWOFF =    5.00E-03 (PURE SCF -> DFT)
     SWITCH=    3.00E-04 (COARSE -> TIGHT GRID)
     THRESH=    0.00E+00 GTHRE=    1.00E+00

 GRIMME'S EMPIRICAL DISPERSION CORRECTION= F

     $CONTRL OPTIONS
     ---------------
 SCFTYP=RHF          RUNTYP=OPTIMIZE     EXETYP=RUN     
 MPLEVL=       0     CITYP =NONE         CCTYP =NONE         VBTYP =NONE    
 DFTTYP=B3LYP        TDDFT =NONE    
 MULT  =       1     ICHARG=       0     NZVAR =       0     COORD =UNIQUE  
 PP    =NONE         RELWFN=NONE         LOCAL =NONE         NUMGRD=       F
 ISPHER=      -1     NOSYM =       0     MAXIT =     200     UNITS =ANGS    
 PLTORB=       F     MOLPLT=       F     AIMPAC=       F     FRIEND=        
 NPRINT=       7     IREST =       0     GEOM  =INPUT   
 NORMF =       0     NORMP =       0     ITOL  =      20     ICUT  =       9
 INTTYP=BEST         GRDTYP=BEST         QMTTOL= 1.0E-06

     $SYSTEM OPTIONS
     ---------------
  REPLICATED MEMORY=   250000000 WORDS (ON EVERY NODE).
 DISTRIBUTED MEMDDI=           0 MILLION WORDS IN AGGREGATE,
 MEMDDI DISTRIBUTED OVER   1 PROCESSORS IS           0 WORDS/PROCESSOR.
 TOTAL MEMORY REQUESTED ON EACH PROCESSOR=   250000000 WORDS.
 TIMLIM=        2879.00 MINUTES, OR       2.0 DAYS.
 PARALL= F  BALTYP=  DLB     KDIAG=    0  COREFL= F
 MXSEQ2=     300 MXSEQ3=     150  mem10=         0

          ----------------
          PROPERTIES INPUT
          ----------------

     MOMENTS            FIELD           POTENTIAL          DENSITY
 IEMOM =       1   IEFLD =       0   IEPOT =       0   IEDEN =       0
 WHERE =COMASS     WHERE =NUCLEI     WHERE =NUCLEI     WHERE =NUCLEI  
 OUTPUT=BOTH       OUTPUT=BOTH       OUTPUT=BOTH       OUTPUT=BOTH    
 IEMINT=       0   IEFINT=       0                     IEDINT=       0
                                                       MORB  =       0
          EXTRAPOLATION IN EFFECT
          DIIS IN EFFECT
 ORBITAL PRINTING OPTION: NPREO=     1    68     2     1

     -------------------------------
     INTEGRAL TRANSFORMATION OPTIONS
     -------------------------------
     NWORD  =            0
     CUTOFF = 1.0E-09     MPTRAN =       0
     DIRTRF =       T     AOINTS =DUP     

          ----------------------
          INTEGRAL INPUT OPTIONS
          ----------------------
 NOPK  =       1 NORDER=       0 SCHWRZ=       T

     ------------------------------------------
     THE POINT GROUP IS C1 , NAXIS= 0, ORDER= 1
     ------------------------------------------

     DIMENSIONS OF THE SYMMETRY SUBSPACES ARE
 A   =   68

 ..... DONE SETTING UP THE RUN .....
 STEP CPU TIME =     0.03 TOTAL CPU TIME =          0.0 (      0.0 MIN)
 TOTAL WALL CLOCK TIME=          0.0 SECONDS, CPU UTILIZATION IS    75.00%


          -----------------------------
          STATIONARY POINT LOCATION RUN
          -----------------------------

 OBTAINING INITIAL HESSIAN, HESS=GUESS   
 CARTESIAN COORDINATE OPTIMIZATION USING BADGER'S RULE FORCE CONSTANT GUESS

          PARAMETERS CONTROLLING GEOMETRY SEARCH ARE
          METHOD =QA                  UPHESS =BFGS    
          NNEG   =         0          NFRZ   =         0
          NSTEP  =       999          IFOLOW =         1
          HESS   =GUESS               RESTAR =         F
          IHREP  =         0          HSSEND =         T
          NPRT   =         0          NPUN   =         0
          OPTTOL = 5.000E-04          RMIN   = 1.500E-03
          RMAX   = 1.000E-01          RLIM   = 7.000E-02
          DXMAX  = 3.000E-01          PURIFY =         F
          MOVIE  =         F          TRUPD  =         T
          TRMAX  = 5.000E-01          TRMIN  = 5.000E-02
          ITBMAT =         5          STPT   =         F
          STSTEP = 1.000E-02          PROJCT=          T

 BEGINNING GEOMETRY SEARCH POINT NSERCH=   0 ...

 COORDINATES OF ALL ATOMS ARE (ANGS)
   ATOM   CHARGE       X              Y              Z
 ------------------------------------------------------------
 O           8.0  -1.7179000000  -0.0349300000   0.1180900000
 C           6.0  -0.5708900000  -0.4531100000   0.0005100000
 C           6.0   0.5906100000   0.4708100000  -0.0368400000
 C           6.0   1.8658900000   0.0481600000  -0.0940100000
 H           1.0  -0.3423700000  -1.5273700000  -0.0812800000
 H           1.0   0.3463000000   1.5237500000  -0.0114000000
 H           1.0   2.1377000000  -0.9993300000  -0.1125000000
 H           1.0   2.6709100000   0.7732300000  -0.1171200000

          ********************
          1 ELECTRON INTEGRALS
          ********************
 ...... END OF ONE-ELECTRON INTEGRALS ......
 STEP CPU TIME =     0.00 TOTAL CPU TIME =          0.0 (      0.0 MIN)
 TOTAL WALL CLOCK TIME=          0.0 SECONDS, CPU UTILIZATION IS    60.00%

          -------------
          GUESS OPTIONS
          -------------
          GUESS =HUCKEL            NORB  =       0          NORDER=       0
          MIX   =       F          PRTMO =       F          PUNMO =       F
          TOLZ  = 1.0E-08          TOLE  = 1.0E-05
          SYMDEN=       F          PURIFY=       F

 INITIAL GUESS ORBITALS GENERATED BY HUCKEL   ROUTINE.
 HUCKEL GUESS REQUIRES     42032 WORDS.

 SYMMETRIES FOR INITIAL GUESS ORBITALS FOLLOW.   BOTH SET(S).
    15 ORBITALS ARE OCCUPIED (    4 CORE ORBITALS).
     5=A        6=A        7=A        8=A        9=A       10=A       11=A   
    12=A       13=A       14=A       15=A       16=A       17=A       18=A   
    19=A       20=A       21=A       22=A       23=A       24=A       25=A   
 ...... END OF INITIAL ORBITAL SELECTION ......
 STEP CPU TIME =     0.01 TOTAL CPU TIME =          0.0 (      0.0 MIN)
 TOTAL WALL CLOCK TIME=          0.1 SECONDS, CPU UTILIZATION IS    57.14%

                    ----------------------
                    AO INTEGRAL TECHNOLOGY
                    ----------------------
     S,P,L SHELL ROTATED AXIS INTEGRALS, REPROGRAMMED BY
        KAZUYA ISHIMURA (IMS) AND JOSE SIERRA (SYNSTAR).
     S,P,D,L SHELL ROTATED AXIS INTEGRALS PROGRAMMED BY
        KAZUYA ISHIMURA (INSTITUTE FOR MOLECULAR SCIENCE).
     S,P,D,F,G SHELL TO TOTAL QUARTET ANGULAR MOMENTUM SUM 5,
        ERIC PROGRAM BY GRAHAM FLETCHER (ELORET AND NASA ADVANCED
        SUPERCOMPUTING DIVISION, AMES RESEARCH CENTER).
     S,P,D,F,G,L SHELL GENERAL RYS QUADRATURE PROGRAMMED BY
        MICHEL DUPUIS (PACIFIC NORTHWEST NATIONAL LABORATORY).

          --------------------
          2 ELECTRON INTEGRALS
          --------------------

 DIRECT SCF METHOD SKIPS INTEGRAL STORAGE ON DISK.
 DIRECT TRANSFORMATION SKIPS AO INTEGRAL STORAGE ON DISK.
  ...... END OF TWO-ELECTRON INTEGRALS .....
 STEP CPU TIME =     0.00 TOTAL CPU TIME =          0.0 (      0.0 MIN)
 TOTAL WALL CLOCK TIME=          0.1 SECONDS, CPU UTILIZATION IS    50.00%

          --------------------------
             R-B3LYP SCF CALCULATION
          --------------------------

     NUCLEAR ENERGY =       102.3777879334
     MAXIT =  200     NPUNCH=    2
     EXTRAP=T  DAMP=F  SHIFT=F  RSTRCT=F  DIIS=T  DEM=F  SOSCF=F
         DENSITY MATRIX CONVERGENCE THRESHOLD=  2.00E-05
     COARSE -> FINE DFT GRID SWITCH THRESHOLD=  3.00E-04 (SWITCH IN $DFT)
                   HF -> DFT SWITCH THRESHOLD=  5.00E-03 (SWOFF IN $DFT)
     MEMORY REQUIRED FOR RHF ITERS=    620217 WORDS.

 DIRECT SCF CALCULATION, SCHWRZ=T   FDIFF=T,  DIRTHR=  0.00E+00 NITDIR=10
 SCHWARZ INEQUALITY OVERHEAD:      2343 INTEGRALS, T=        0.00

 DFT CODE IS SWITCHING FROM THE FINE GRID NRAD= 96,  NLEB=  590
                      TO THE COARSE GRID NRAD0= 24, NLEB0=  110

     EXCHANGE FUNCTIONAL   =B88&HFX   
     CORRELATION FUNCTIONAL=LYP88&VWN5
     DFT THRESHOLD         =.883E-08
     GRID CHANGE THRESHOLD =.300E-03
 FOR AN EULER-MACLAURIN QUADRATURE USING  96 RADIAL POINTS:
 SMALLEST GAUSSIAN PRIMITIVE EXPONENT=        0.1612777588 OF TYPE -S-
 ON ATOM NUMBER   5 HAS RADIAL NORMALIZATION=  1.000000
  LARGEST GAUSSIAN PRIMITIVE EXPONENT=     5484.6716600000 OF TYPE -S-
 ON ATOM NUMBER   1 HAS RADIAL NORMALIZATION=  1.000000
 DFT IS SWITCHED OFF, PERFORMING PURE SCF UNTIL SWOFF THRESHOLD IS REACHED.

                                                                                   NONZERO     BLOCKS
 ITER EX DEM     TOTAL ENERGY        E CHANGE  DENSITY CHANGE    DIIS ERROR      INTEGRALS    SKIPPED
          * * *   INITIATING DIIS PROCEDURE   * * *
   1  0  0     -190.2087344662  -190.2087344662   0.304220754   0.462241918        2519941       4351
   2  1  0     -190.6956105551    -0.4868760889   0.148774651   0.113864373        2519551       4639
   3  2  0     -190.7345627578    -0.0389522027   0.070820132   0.085304128        2517205       5053
   4  3  0     -190.7579659926    -0.0234032348   0.011791182   0.007079891        2513083       5451
   5  4  0     -190.7585241046    -0.0005581120   0.006477243   0.003099024        2500686       6094
   6  5  0     -190.7586092741    -0.0000851695   0.003024625   0.001130189        2486348       6755
 CONVERGED TO SWOFF, SO DFT CALCULATION IS NOW SWITCHED ON.
          * * *   INITIATING DIIS PROCEDURE   * * *
   7  6  0     -191.7802047161    -1.0215954420   0.118828196   0.104343154        2519968       4362
   8  7  0     -191.7977455281    -0.0175408120   0.073368741   0.033369119        2517853       4932
   9  8  0     -191.7924346887     0.0053108394   0.058653195   0.049785619        2514241       5306
  10  9  0     -191.8020647912    -0.0096301024   0.009969483   0.011492734        2509094       5608
  11 10  0     -191.8023995207    -0.0003347295   0.001598885   0.001017511        2493184       6338
  12 11  0     -191.8024012106    -0.0000016900   0.000866245   0.000627094        2453534       7744
  13 12  0     -191.8024036271    -0.0000024165   0.000084255   0.000065812        2409939       8979
 DFT CODE IS SWITCHING BACK TO THE FINE GRID
          * * *   INITIATING DIIS PROCEDURE   * * *
  14 13  0     -191.8002240591     0.0021795681   0.002461491   0.001559938        2520117       4323
  15 14  0     -191.8002336126    -0.0000095535   0.001043024   0.000277366        2481952       6937
  16 15  0     -191.8002328070     0.0000008056   0.000642180   0.000557871        2422815       8828
  17 16  0     -191.8002340197    -0.0000012127   0.000065681   0.000056789        2404547       9358
  18 17  0     -191.8002340268    -0.0000000071   0.000029425   0.000021285        2324293      11180
  19 18  0     -191.8002340284    -0.0000000016   0.000011180   0.000008728        2260611      12626

          -----------------
          DENSITY CONVERGED
          -----------------
     TIME TO FORM FOCK OPERATORS=       8.3 SECONDS (       0.4 SEC/ITER)
     FOCK TIME ON FIRST ITERATION=       0.1, LAST ITERATION=       1.1
     TIME TO SOLVE SCF EQUATIONS=       0.1 SECONDS (       0.0 SEC/ITER)

 FINAL R-B3LYP ENERGY IS     -191.8002340284 AFTER  19 ITERATIONS
 DFT EXCHANGE + CORRELATION ENERGY =       -21.1439476644
 TOTAL ELECTRON NUMBER             =        30.0000050483

          ------------
          EIGENVECTORS
          ------------

                      1          2          3          4          5
                  -19.1447   -10.2753   -10.2165   -10.2070    -1.0334
                     A          A          A          A          A   
    1  O  1  S    0.992772  -0.000132  -0.000037   0.000019  -0.194689
    2  O  1  S    0.025703   0.000358  -0.000163   0.000042   0.425897
    3  O  1  X    0.001063  -0.000056  -0.000014   0.000024   0.150682
    4  O  1  Y   -0.000398   0.000002  -0.000005   0.000010  -0.053411
    5  O  1  Z   -0.000109   0.000003   0.000003  -0.000006  -0.015384
    6  O  1  S    0.013568  -0.002591   0.000914  -0.000572   0.400372
    7  O  1  X    0.001495  -0.001716   0.000280  -0.000284   0.054269
    8  O  1  Y   -0.000432   0.000747   0.000009  -0.000150  -0.015709
    9  O  1  Z   -0.000152   0.000190  -0.000029   0.000023  -0.005443
   10  O  1 XX   -0.007615  -0.000283  -0.000060   0.000081   0.008221
   11  O  1 YY   -0.008028   0.000161  -0.000120   0.000112  -0.008466
   12  O  1 ZZ   -0.008084   0.000380  -0.000117  -0.000001  -0.005612
   13  O  1 XY   -0.000170   0.000234   0.000015   0.000001  -0.007517
   14  O  1 XZ   -0.000055   0.000078  -0.000005  -0.000006  -0.001771
   15  O  1 YZ    0.000018  -0.000035  -0.000002   0.000010   0.000440
   16  C  2  S    0.000014   0.992825  -0.000102  -0.002239  -0.117576
   17  C  2  S    0.000552   0.048660  -0.000163  -0.000378   0.229537
   18  C  2  X   -0.000005  -0.000704  -0.000023  -0.000196  -0.164692
   19  C  2  Y    0.000055   0.000320  -0.000004  -0.000189   0.065850
   20  C  2  Z    0.000002   0.000075  -0.000000   0.000007   0.017168
   21  C  2  S   -0.003235  -0.008991  -0.000075   0.004986   0.071563
   22  C  2  X    0.002583  -0.003161   0.000478   0.001661   0.023169
   23  C  2  Y   -0.001603   0.000687  -0.000286   0.001262  -0.027888
   24  C  2  Z   -0.000292   0.000283  -0.000053  -0.000048  -0.003353
   25  C  2 XX   -0.000734  -0.008552   0.000011  -0.000325   0.017481
   26  C  2 YY   -0.000129  -0.009311  -0.000022  -0.000340  -0.011833
   27  C  2 ZZ   -0.000018  -0.009687  -0.000058  -0.000144  -0.018729
   28  C  2 XY    0.000306  -0.000352   0.000040  -0.000218  -0.016048
   29  C  2 XZ    0.000086  -0.000128  -0.000000   0.000003  -0.004344
   30  C  2 YZ   -0.000033   0.000054  -0.000003   0.000013   0.001796
   31  C  3  S   -0.000010   0.001964   0.042269   0.991853  -0.020462
   32  C  3  S    0.000010  -0.000092   0.001598   0.049585   0.037495
   33  C  3  X    0.000002   0.000187  -0.000387   0.000112  -0.026120
   34  C  3  Y   -0.000053   0.000274   0.000140  -0.000218  -0.012592
   35  C  3  Z   -0.000001  -0.000003   0.000018  -0.000004   0.001366
   36  C  3  S    0.000582   0.003262   0.003925  -0.015539   0.022335
   37  C  3  X   -0.000520  -0.000799   0.001722  -0.000243  -0.022382
   38  C  3  Y    0.000397  -0.001605  -0.000449   0.002035   0.003179
   39  C  3  Z    0.000053  -0.000022  -0.000066   0.000029   0.001710
   40  C  3 XX   -0.000087  -0.000446  -0.000707  -0.009102   0.005832
   41  C  3 YY    0.000003  -0.000317  -0.000635  -0.009365   0.001047
   42  C  3 ZZ   -0.000014  -0.000182  -0.000545  -0.009633  -0.002338
   43  C  3 XY    0.000012  -0.000187   0.000017  -0.000107   0.004304
   44  C  3 XZ    0.000007   0.000013   0.000007  -0.000026  -0.000447
   45  C  3 YZ   -0.000004   0.000007  -0.000003   0.000010  -0.000235
   46  C  4  S    0.000023  -0.000050   0.991796  -0.042742  -0.003732
   47  C  4  S    0.000102  -0.000207   0.049199  -0.002655   0.009244
   48  C  4  X   -0.000086   0.000117  -0.000033   0.000392  -0.006694
   49  C  4  Y   -0.000034   0.000091  -0.000015  -0.000113  -0.000724
   50  C  4  Z   -0.000001  -0.000006   0.000009  -0.000017   0.000289
   51  C  4  S   -0.000026  -0.000156  -0.012784   0.005746   0.012695
   52  C  4  X    0.000375  -0.000444   0.000887  -0.002232   0.002981
   53  C  4  Y    0.000333  -0.000293  -0.000286  -0.000087   0.011212
   54  C  4  Z   -0.000010   0.000030  -0.000052   0.000091  -0.000125
   55  C  4 XX    0.000010   0.000068  -0.009256   0.000049   0.000408
   56  C  4 YY    0.000028   0.000016  -0.009422   0.000159  -0.000100
   57  C  4 ZZ    0.000066  -0.000122  -0.009780   0.000290   0.000136
   58  C  4 XY   -0.000011  -0.000049  -0.000090   0.000101   0.000142
   59  C  4 XZ    0.000003  -0.000012  -0.000025   0.000013   0.000002
   60  C  4 YZ   -0.000002   0.000004   0.000007  -0.000006  -0.000018
   61  H  5  S   -0.000039  -0.000261  -0.000056  -0.000123   0.028369
   62  H  5  S   -0.000556   0.002453  -0.000164  -0.000130  -0.016881
   63  H  6  S   -0.000028  -0.000036  -0.000096  -0.000350   0.007986
   64  H  6  S   -0.000366   0.000400   0.000021   0.001725  -0.002273
   65  H  7  S    0.000083  -0.000102  -0.000349  -0.000129   0.002741
   66  H  7  S    0.000029  -0.000011   0.002175  -0.000499   0.003600
   67  H  8  S   -0.000033   0.000038  -0.000332  -0.000015   0.000021
   68  H  8  S   -0.000269   0.000437   0.002159   0.000091  -0.006657

                      6          7          8          9         10
                   -0.7958    -0.6469    -0.5732    -0.4772    -0.4692
                     A          A          A          A          A   
    1  O  1  S    0.039367  -0.067901  -0.036170   0.011908   0.064791
    2  O  1  S   -0.091259   0.155426   0.082960  -0.019788  -0.135002
    3  O  1  X    0.000279  -0.061276  -0.032055  -0.027381   0.264211
    4  O  1  Y    0.014376   0.000237   0.108133  -0.190233  -0.021577
    5  O  1  Z    0.000979   0.005316   0.008016  -0.011152  -0.027654
    6  O  1  S   -0.081320   0.188625   0.104407  -0.069976  -0.280060
    7  O  1  X    0.005735  -0.035967  -0.020643  -0.026743   0.130933
    8  O  1  Y    0.001254   0.001360   0.055800  -0.101130  -0.003417
    9  O  1  Z   -0.000465   0.003118   0.004539  -0.004839  -0.013439
   10  O  1 XX    0.001741  -0.009500  -0.001802  -0.004953   0.022563
   11  O  1 YY   -0.000392  -0.000932  -0.005055   0.011201   0.002604
   12  O  1 ZZ   -0.000569   0.001002   0.000710   0.002537   0.000533
   13  O  1 XY    0.000714   0.001630   0.009922  -0.012366  -0.002886
   14  O  1 XZ   -0.000162   0.001122   0.000745  -0.000199  -0.002646
   15  O  1 YZ   -0.000051  -0.000273  -0.001191   0.001654   0.000490
   16  C  2  S   -0.050318   0.116615   0.086599  -0.011453  -0.050610
   17  C  2  S    0.099745  -0.247232  -0.184250   0.021610   0.121959
   18  C  2  X    0.128526  -0.173883  -0.024842  -0.122872  -0.098214
   19  C  2  Y    0.022114   0.002063   0.228595  -0.294972   0.118053
   20  C  2  Z   -0.008420   0.015164   0.013615  -0.010595   0.008061
   21  C  2  S    0.079997  -0.212080  -0.184638   0.062311   0.108677
   22  C  2  X    0.039027  -0.052292  -0.035605  -0.042245  -0.025695
   23  C  2  Y   -0.002719   0.015677   0.069161  -0.084558   0.046048
   24  C  2  Z   -0.002790   0.005564   0.006087  -0.003355   0.001058
   25  C  2 XX   -0.000299   0.012105   0.008205  -0.001060  -0.012070
   26  C  2 YY    0.004461  -0.009127  -0.003996   0.006539   0.001589
   27  C  2 ZZ   -0.004363   0.008499   0.006678  -0.001831  -0.004552
   28  C  2 XY    0.010199  -0.008527   0.005509  -0.002150  -0.002383
   29  C  2 XZ    0.000359  -0.000764   0.000070  -0.000283   0.000387
   30  C  2 YZ   -0.000178  -0.000437  -0.001288   0.000644   0.000248
   31  C  3  S   -0.159921   0.058860  -0.095028  -0.008129   0.032841
   32  C  3  S    0.313370  -0.120303   0.193362   0.014871  -0.070998
   33  C  3  X    0.069295   0.206951  -0.014817   0.200332  -0.224854
   34  C  3  Y   -0.049352   0.046381   0.186470   0.165690   0.175292
   35  C  3  Z   -0.003533  -0.006914   0.004838  -0.009958   0.011894
   36  C  3  S    0.206812  -0.105693   0.206494   0.008452  -0.031294
   37  C  3  X    0.003364   0.048383  -0.017858   0.088628  -0.038672
   38  C  3  Y    0.013492   0.002289   0.054312   0.060786   0.051386
   39  C  3  Z    0.000009  -0.001626   0.001909  -0.005079   0.002103
   40  C  3 XX    0.003725   0.006673  -0.004980  -0.001397   0.004725
   41  C  3 YY    0.000595  -0.007866   0.003471   0.002112   0.005751
   42  C  3 ZZ   -0.015574   0.005077  -0.007910  -0.000785   0.001599
   43  C  3 XY   -0.003451  -0.011288  -0.005979  -0.000518   0.007714
   44  C  3 XZ   -0.000891  -0.000322  -0.000346   0.000225  -0.000026
   45  C  3 YZ    0.000389   0.000203   0.000335   0.000340  -0.000259
   46  C  4  S   -0.145653  -0.130380   0.049544   0.008009  -0.006459
   47  C  4  S    0.281914   0.261028  -0.100059  -0.015003   0.015634
   48  C  4  X   -0.095571   0.079866  -0.100737  -0.060070   0.354282
   49  C  4  Y    0.026105   0.012305   0.133850   0.303960   0.075801
   50  C  4  Z    0.004433  -0.002458   0.005836   0.003826  -0.013019
   51  C  4  S    0.219146   0.242510  -0.106239  -0.050058   0.004366
   52  C  4  X   -0.012590   0.035885  -0.028663  -0.012801   0.143472
   53  C  4  Y   -0.004754   0.002863   0.048556   0.108676   0.033154
   54  C  4  Z    0.000515  -0.001242   0.001944   0.000899  -0.005017
   55  C  4 XX    0.007829  -0.004197   0.004251   0.004872  -0.002509
   56  C  4 YY    0.000795   0.008505  -0.007313  -0.009496   0.011130
   57  C  4 ZZ   -0.015268  -0.012188   0.004618   0.000940  -0.000273
   58  C  4 XY   -0.002647   0.003003  -0.006216   0.003240   0.012050
   59  C  4 XZ   -0.001114  -0.000334  -0.000158  -0.000048   0.000291
   60  C  4 YZ    0.000285   0.000111   0.000176  -0.000137  -0.000318
   61  H  5  S    0.032998  -0.105567  -0.181077   0.148950  -0.017506
   62  H  5  S    0.004597  -0.030602  -0.096177   0.104795  -0.020080
   63  H  6  S    0.077587  -0.045968   0.169285   0.071010   0.090896
   64  H  6  S    0.004395  -0.009085   0.084169   0.045336   0.069696
   65  H  7  S    0.075509   0.106506  -0.121028  -0.183256   0.020483
   66  H  7  S    0.010568   0.036617  -0.064742  -0.126264   0.016432
   67  H  8  S    0.073669   0.129910  -0.039197   0.079031   0.193534
   68  H  8  S    0.015183   0.046357  -0.020514   0.057612   0.137439

                     11         12         13         14         15
                   -0.4144    -0.3919    -0.3900    -0.2872    -0.2540
                     A          A          A          A          A   
    1  O  1  S    0.063006  -0.010671   0.004021   0.000255  -0.000390
    2  O  1  S   -0.125780   0.018828  -0.006471  -0.000160  -0.006742
    3  O  1  X    0.419709  -0.001123   0.015891  -0.027257   0.210980
    4  O  1  Y   -0.147565   0.134967  -0.111228   0.020022   0.547694
    5  O  1  Z   -0.019829   0.248938   0.358583  -0.275467   0.016235
    6  O  1  S   -0.276283   0.063929  -0.029678  -0.004160   0.042612
    7  O  1  X    0.225291   0.008615   0.004823  -0.020414   0.158832
    8  O  1  Y   -0.080790   0.076316  -0.064042   0.015032   0.386544
    9  O  1  Z   -0.009668   0.151190   0.220232  -0.198846   0.010522
   10  O  1 XX    0.027062   0.003079   0.001071  -0.001820   0.008569
   11  O  1 YY    0.002848  -0.006759   0.005669  -0.000253  -0.012570
   12  O  1 ZZ    0.000051  -0.003487  -0.003494   0.002597  -0.002624
   13  O  1 XY   -0.009855   0.006532  -0.006592   0.001383   0.014549
   14  O  1 XZ   -0.001588   0.015455   0.022883  -0.012428  -0.000158
   15  O  1 YZ    0.000502  -0.006144  -0.007054   0.005391  -0.001914
   16  C  2  S   -0.015843  -0.019663   0.013149  -0.000413   0.000977
   17  C  2  S    0.049947   0.042906  -0.029726   0.000407  -0.013541
   18  C  2  X   -0.285282   0.160674  -0.053374  -0.001481  -0.053488
   19  C  2  Y    0.143757   0.104959  -0.106022  -0.001848  -0.125202
   20  C  2  Z    0.054029   0.194818   0.300741  -0.043344  -0.002702
   21  C  2  S   -0.009563   0.067180  -0.039784   0.005879   0.000045
   22  C  2  X   -0.029130   0.071276  -0.026697  -0.005336   0.074251
   23  C  2  Y    0.007208   0.032861  -0.036911   0.001165   0.022748
   24  C  2  Z    0.015720   0.110898   0.173776  -0.028984  -0.003723
   25  C  2 XX    0.011139  -0.002164  -0.002814   0.002511  -0.026069
   26  C  2 YY   -0.020496  -0.003431   0.002924   0.000910   0.028636
   27  C  2 ZZ   -0.005136   0.002045   0.003103  -0.003223  -0.001170
   28  C  2 XY   -0.006241   0.000156   0.002740  -0.001264  -0.037169
   29  C  2 XZ   -0.002324  -0.008726  -0.013508   0.025290   0.000070
   30  C  2 YZ    0.000383   0.006258   0.009226   0.001609   0.005037
   31  C  3  S   -0.003520   0.011522  -0.007280   0.000490   0.039799
   32  C  3  S    0.011021  -0.019429   0.011368  -0.000370  -0.076764
   33  C  3  X    0.203581   0.009539  -0.014197   0.016756   0.179582
   34  C  3  Y   -0.100848  -0.241557   0.168855  -0.004477   0.124301
   35  C  3  Z    0.004392   0.093256   0.150285   0.360890  -0.007598
   36  C  3  S   -0.022405  -0.054850   0.041121  -0.005543  -0.335633
   37  C  3  X    0.034823  -0.006846   0.009033   0.010951   0.032716
   38  C  3  Y   -0.001316  -0.081096   0.054523  -0.004262   0.123915
   39  C  3  Z    0.006804   0.054327   0.082874   0.243981   0.001704
   40  C  3 XX    0.008873   0.011454  -0.009445   0.001172   0.000199
   41  C  3 YY   -0.013128  -0.016369   0.012695   0.000282   0.003072
   42  C  3 ZZ    0.000391   0.001517  -0.000736  -0.001228   0.002064
   43  C  3 XY   -0.005338   0.014935  -0.009351  -0.000436  -0.006610
   44  C  3 XZ   -0.001018  -0.003083  -0.003640   0.015858  -0.000461
   45  C  3 YZ   -0.000749  -0.004709  -0.005082  -0.005951   0.000608
   46  C  4  S   -0.018277  -0.007861   0.007846   0.000144  -0.009674
   47  C  4  S    0.041832   0.016192  -0.016373  -0.000591   0.016332
   48  C  4  X   -0.235003   0.026282   0.010080   0.014279  -0.074451
   49  C  4  Y   -0.003526   0.258542  -0.166995  -0.002520   0.003655
   50  C  4  Z    0.016221   0.054189   0.079525   0.375999  -0.000955
   51  C  4  S    0.071458   0.036262  -0.036630   0.000142   0.122113
   52  C  4  X   -0.088128   0.007235   0.007648   0.008699  -0.098991
   53  C  4  Y    0.004652   0.098847  -0.065071  -0.002317   0.023161
   54  C  4  Z    0.007278   0.030179   0.045440   0.275508  -0.000533
   55  C  4 XX    0.000356   0.011387  -0.007938  -0.001019  -0.004057
   56  C  4 YY   -0.007445  -0.013345   0.009395  -0.000182   0.002856
   57  C  4 ZZ   -0.000277  -0.000403   0.000994   0.001111  -0.001212
   58  C  4 XY   -0.006753   0.018041  -0.010989   0.000366  -0.007175
   59  C  4 XZ   -0.000645  -0.003924  -0.005202  -0.014416   0.000200
   60  C  4 YZ    0.000240  -0.000156   0.001509   0.004508   0.000359
   61  H  5  S   -0.111030  -0.035480   0.033451   0.004884   0.167694
   62  H  5  S   -0.123324  -0.050605   0.044204   0.004466   0.256653
   63  H  6  S   -0.092046  -0.177784   0.128282  -0.000002   0.027860
   64  H  6  S   -0.106313  -0.153757   0.112264   0.002138   0.074810
   65  H  7  S   -0.020769  -0.167942   0.109868  -0.000675   0.014701
   66  H  7  S   -0.029838  -0.160857   0.107709  -0.000144   0.044511
   67  H  8  S   -0.096977   0.144477  -0.084675   0.000364  -0.042667
   68  H  8  S   -0.094435   0.128969  -0.074434   0.001102  -0.054392

                     16         17         18         19         20
                   -0.0630     0.0580     0.1095     0.1181     0.1517
                     A          A          A          A          A   
    1  O  1  S   -0.000339   0.001396   0.016056  -0.002133  -0.004094
    2  O  1  S    0.001367  -0.004352  -0.030858  -0.003640  -0.017796
    3  O  1  X    0.031335   0.011844  -0.060825   0.026252  -0.040197
    4  O  1  Y   -0.017168  -0.016592   0.066722   0.031507   0.062465
    5  O  1  Z    0.350074   0.244448  -0.002738   0.008035   0.009765
    6  O  1  S    0.001464  -0.011211  -0.175457   0.055338   0.198383
    7  O  1  X    0.028986   0.018114  -0.071496   0.041331   0.027500
    8  O  1  Y   -0.016817  -0.017929   0.134583   0.095755   0.076243
    9  O  1  Z    0.330412   0.309073  -0.000493   0.012800   0.006324
   10  O  1 XX    0.000515  -0.000466   0.004622  -0.007653  -0.001929
   11  O  1 YY    0.000193  -0.000696   0.002429  -0.001224  -0.013611
   12  O  1 ZZ   -0.000212   0.000600   0.005258  -0.001784  -0.004329
   13  O  1 XY   -0.000321   0.001062   0.002638  -0.001696  -0.008578
   14  O  1 XZ    0.001659  -0.002787   0.000561   0.000332  -0.000919
   15  O  1 YZ   -0.002113   0.006181  -0.000701   0.000165   0.000416
   16  C  2  S   -0.000359   0.001002  -0.036409  -0.042143  -0.108393
   17  C  2  S    0.000079   0.000449   0.075891   0.052164   0.180134
   18  C  2  X   -0.027497  -0.035354   0.001984   0.030085   0.141387
   19  C  2  Y    0.018963   0.027875  -0.103557  -0.207750  -0.186535
   20  C  2  Z   -0.339784  -0.402029   0.013644  -0.024937  -0.031590
   21  C  2  S    0.004183  -0.030831   0.371137   0.737513   1.543297
   22  C  2  X   -0.023221  -0.069600  -0.199950   0.155835   0.604141
   23  C  2  Y    0.015405   0.034067  -0.398581  -0.403830  -0.495607
   24  C  2  Z   -0.314789  -0.562198   0.020465  -0.059167  -0.086526
   25  C  2 XX   -0.003804  -0.002369  -0.021118   0.009552  -0.015897
   26  C  2 YY   -0.000867  -0.000236   0.011841  -0.012458  -0.013308
   27  C  2 ZZ    0.004218   0.003278   0.004319  -0.005030   0.003310
   28  C  2 XY    0.001425   0.003286   0.006291  -0.008069  -0.004170
   29  C  2 XZ   -0.028581  -0.001652   0.002437  -0.001402   0.001722
   30  C  2 YZ    0.000829   0.025338  -0.000901   0.000963  -0.000161
   31  C  3  S   -0.000249  -0.002432  -0.017577   0.066799   0.015167
   32  C  3  S   -0.000564   0.001608   0.012088  -0.106739  -0.021842
   33  C  3  X   -0.006062   0.014003  -0.027027   0.051813   0.157441
   34  C  3  Y    0.003463  -0.000142   0.135074  -0.190681   0.116901
   35  C  3  Z   -0.209640   0.416695  -0.010220   0.005493   0.003588
   36  C  3  S    0.007643   0.059729   0.609541  -0.945836  -0.172202
   37  C  3  X   -0.012605   0.012624  -0.330771   0.156506   0.444868
   38  C  3  Y    0.007491  -0.008427   0.248954  -0.339884   0.383737
   39  C  3  Z   -0.261151   0.654692  -0.002025   0.011018   0.011626
   40  C  3 XX    0.002907   0.002129   0.008402  -0.013840  -0.001194
   41  C  3 YY   -0.001516  -0.003061  -0.010798   0.021987   0.005158
   42  C  3 ZZ   -0.001870   0.000158  -0.000731   0.003283  -0.001294
   43  C  3 XY   -0.000291   0.000439   0.001963  -0.012823   0.028386
   44  C  3 XZ    0.028387   0.000720  -0.000851   0.001057   0.000690
   45  C  3 YZ    0.005475   0.021228  -0.001322   0.001528  -0.000618
   46  C  4  S   -0.001169  -0.004498  -0.111346  -0.028511   0.055916
   47  C  4  S    0.003283   0.010037   0.180079   0.040324  -0.084249
   48  C  4  X    0.011462  -0.008304   0.207426  -0.038733   0.001775
   49  C  4  Y   -0.003973   0.003189  -0.005027  -0.248061   0.180933
   50  C  4  Z    0.368558  -0.231330  -0.004418  -0.006846  -0.006367
   51  C  4  S    0.009364   0.045638   1.752097   0.403026  -0.886647
   52  C  4  X    0.020758   0.008524   0.634484  -0.119079   0.114833
   53  C  4  Y   -0.002928   0.010450  -0.002139  -0.625859   0.508069
   54  C  4  Z    0.430484  -0.467540  -0.010976  -0.013185  -0.014661
   55  C  4 XX    0.000607  -0.002340  -0.006176   0.004578  -0.004757
   56  C  4 YY    0.000088  -0.000425  -0.006773  -0.006177   0.016093
   57  C  4 ZZ   -0.000705   0.002059  -0.004915  -0.003333   0.000587
   58  C  4 XY   -0.000573   0.000034  -0.015263   0.013018  -0.018144
   59  C  4 XZ    0.011783  -0.023318   0.000586  -0.000960  -0.000786
   60  C  4 YZ   -0.001564   0.012971  -0.000077  -0.000290   0.000984
   61  H  5  S   -0.001247   0.005768   0.021079  -0.049329  -0.087869
   62  H  5  S   -0.007363   0.030584  -0.552560  -1.000661  -1.539028
   63  H  6  S   -0.004025  -0.006441  -0.022054   0.108394  -0.018097
   64  H  6  S   -0.013155  -0.044358  -0.604909   1.219127  -0.235367
   65  H  7  S    0.001806   0.000152  -0.027230  -0.052828   0.108706
   66  H  7  S   -0.003181  -0.023434  -0.968145  -1.064208   1.157951
   67  H  8  S   -0.001885  -0.004712  -0.094210   0.025188  -0.047382
   68  H  8  S   -0.009884  -0.049741  -1.444138   0.534431  -0.238825

                     21         22         23         24         25
                    0.1943     0.2613     0.3109     0.3517     0.5086
                     A          A          A          A          A   
    1  O  1  S    0.003939  -0.107931  -0.029808   0.030008   0.002717
    2  O  1  S   -0.009507   0.105098   0.101169   0.047975   0.008432
    3  O  1  X   -0.017167   0.143393   0.160063  -0.045549   0.016178
    4  O  1  Y   -0.109537  -0.107907   0.062853  -0.030122   0.018066
    5  O  1  Z   -0.001713  -0.018065  -0.010528  -0.000597  -0.031302
    6  O  1  S   -0.085053   2.104557   0.192210  -0.952326  -0.111678
    7  O  1  X   -0.061173   0.759092   0.287508  -0.452488  -0.049632
    8  O  1  Y   -0.137786  -0.417908   0.122715  -0.156752   0.020115
    9  O  1  Z   -0.000310  -0.085641  -0.009148   0.033206  -0.072498
   10  O  1 XX   -0.002763  -0.007631   0.004277   0.025007  -0.007779
   11  O  1 YY   -0.000192  -0.057800   0.011570   0.018440   0.003359
   12  O  1 ZZ   -0.000707  -0.062162   0.000279   0.049370   0.014260
   13  O  1 XY    0.004725  -0.024866  -0.006306   0.008077   0.003725
   14  O  1 XZ    0.000409  -0.006776   0.000291   0.003967  -0.039639
   15  O  1 YZ   -0.000656   0.002605   0.001657  -0.002483   0.015899
   16  C  2  S   -0.006271   0.032968   0.076766  -0.064545   0.002857
   17  C  2  S    0.032058  -0.000889  -0.047766   0.069985  -0.045841
   18  C  2  X    0.113499   0.181161  -0.058823   0.206841  -0.070064
   19  C  2  Y    0.194277   0.012557  -0.211279   0.401045   0.038290
   20  C  2  Z    0.001452  -0.017168  -0.001598   0.016871  -0.667650
   21  C  2  S   -0.268491  -0.849766  -1.636043   1.970716   0.169915
   22  C  2  X   -0.039916   2.317837  -0.660616   0.072959  -0.007956
   23  C  2  Y    0.534209  -0.324604  -0.443608   1.876042   0.014482
   24  C  2  Z    0.026019  -0.204746  -0.006457   0.076936   0.722869
   25  C  2 XX    0.005404   0.012429   0.031775   0.004234   0.008176
   26  C  2 YY   -0.011073  -0.005655  -0.004711  -0.020414  -0.006977
   27  C  2 ZZ    0.003267  -0.018801  -0.010573   0.015886  -0.003422
   28  C  2 XY   -0.007169  -0.011505   0.000080  -0.020349  -0.000247
   29  C  2 XZ   -0.000649  -0.003152  -0.004025  -0.000198  -0.001994
   30  C  2 YZ   -0.000563   0.002476   0.002260   0.000765  -0.022066
   31  C  3  S    0.094631   0.010380  -0.118053   0.022976  -0.007838
   32  C  3  S   -0.148800   0.062458   0.145404  -0.081372  -0.021718
   33  C  3  X    0.028219  -0.065588   0.110481   0.299666  -0.057776
   34  C  3  Y   -0.175188   0.095212  -0.294696   0.116378  -0.007176
   35  C  3  Z   -0.001979   0.013042  -0.007814  -0.009166  -0.445864
   36  C  3  S   -1.658237  -1.066043   3.353644   0.835220   0.081078
   37  C  3  X    0.070470  -0.044941   0.906442   3.239405   0.211166
   38  C  3  Y   -1.025444   1.219693  -1.765841   0.217813  -0.020399
   39  C  3  Z   -0.022475   0.052459  -0.048409  -0.151422   0.191963
   40  C  3 XX    0.019774  -0.023516  -0.014723   0.016616  -0.016373
   41  C  3 YY   -0.007570   0.038661   0.009055  -0.002093  -0.002337
   42  C  3 ZZ    0.000494   0.002520  -0.001197  -0.009859   0.007739
   43  C  3 XY    0.016624   0.008233  -0.008920   0.033879   0.005589
   44  C  3 XZ   -0.000614   0.001815   0.000606  -0.000873  -0.018393
   45  C  3 YZ   -0.000775   0.002016   0.001363  -0.002251   0.026735
   46  C  4  S   -0.051550  -0.016668   0.074617   0.028927   0.001461
   47  C  4  S    0.077779  -0.051676  -0.039982   0.040585  -0.046095
   48  C  4  X    0.103786   0.196414   0.105749   0.037930   0.052368
   49  C  4  Y    0.264795  -0.014211   0.083801  -0.198072  -0.016593
   50  C  4  Z   -0.000345  -0.000933   0.001001   0.000073  -0.637490
   51  C  4  S    0.657123   1.051591  -2.195749  -2.326026  -0.093768
   52  C  4  X    0.206813  -0.388690   2.376194   1.745696   0.007919
   53  C  4  Y    1.214403  -0.303846   0.028278  -1.385210  -0.017311
   54  C  4  Z    0.007105  -0.004226  -0.101903  -0.080325   0.615120
   55  C  4 XX   -0.009685   0.008493   0.044596  -0.017645  -0.001277
   56  C  4 YY    0.002027   0.000132  -0.043597   0.008216  -0.002357
   57  C  4 ZZ   -0.002997  -0.008183   0.007936   0.007764  -0.002423
   58  C  4 XY    0.009052   0.017612  -0.004324  -0.045420   0.001525
   59  C  4 XZ    0.000427  -0.000783  -0.001569   0.000809   0.027882
   60  C  4 YZ   -0.000110   0.000585  -0.000012   0.001831  -0.018139
   61  H  5  S   -0.027455   0.064292   0.037816  -0.037048  -0.028686
   62  H  5  S    0.609106  -0.093112   0.115514   1.163421   0.035180
   63  H  6  S    0.018914   0.102230   0.030786  -0.029105  -0.011986
   64  H  6  S    1.708164  -0.719595   0.864437   0.220800   0.020076
   65  H  7  S   -0.011313  -0.054312  -0.123800   0.034110  -0.005392
   66  H  7  S    0.851253  -0.546290   0.275655  -1.140475  -0.010903
   67  H  8  S   -0.029362   0.038483  -0.017307  -0.195590  -0.001696
   68  H  8  S   -1.485985  -0.140817  -0.873028   0.271880  -0.009511

                     26         27         28         29         30
                    0.5154     0.5529     0.5852     0.6219     0.6392
                     A          A          A          A          A   
    1  O  1  S    0.024141   0.025383   0.000485  -0.000602  -0.001257
    2  O  1  S    0.041516  -0.139506  -0.002630  -0.004659  -0.013050
    3  O  1  X    0.129814  -0.047620  -0.008767  -0.166076   0.009596
    4  O  1  Y    0.152509  -0.049234   0.013543  -0.171761  -0.014915
    5  O  1  Z    0.002165   0.002003  -0.100411  -0.004038  -0.028543
    6  O  1  S   -0.857216  -0.202074  -0.005727   0.260014   0.023714
    7  O  1  X   -0.341987  -0.289065  -0.007790   0.036778   0.019157
    8  O  1  Y    0.136947  -0.035954   0.011522  -0.104175  -0.005860
    9  O  1  Z    0.050412   0.019307  -0.085758  -0.007118   0.136163
   10  O  1 XX   -0.017145  -0.029212  -0.006358   0.035395  -0.007538
   11  O  1 YY    0.037958  -0.029070  -0.001837   0.007580  -0.005541
   12  O  1 ZZ    0.045519  -0.001706   0.006468  -0.017317  -0.005626
   13  O  1 XY   -0.009683  -0.011192   0.003961  -0.027966   0.004491
   14  O  1 XZ    0.009918   0.000723  -0.046025  -0.006544   0.031514
   15  O  1 YZ   -0.000618  -0.000680   0.010709   0.004176   0.015784
   16  C  2  S    0.019908  -0.052399  -0.000209   0.003769   0.000722
   17  C  2  S   -0.353271  -0.425414   0.023988  -0.027127  -0.022645
   18  C  2  X   -0.197226  -0.301315  -0.049076  -0.381213   0.052461
   19  C  2  Y   -0.082159  -0.084662   0.057237  -0.316376  -0.029400
   20  C  2  Z    0.081088   0.004716  -0.723454   0.005013   0.234127
   21  C  2  S    1.273802   1.226800  -0.021796   0.102184  -0.021746
   22  C  2  X   -0.558740   0.403434   0.045131   0.904262  -0.083260
   23  C  2  Y    0.388319   0.627299  -0.093593   0.905177   0.036479
   24  C  2  Z   -0.030088   0.021181   1.003238  -0.007739  -0.699255
   25  C  2 XX    0.052928  -0.057269   0.002294  -0.056946   0.002866
   26  C  2 YY   -0.062220  -0.121832   0.005881   0.068314  -0.009185
   27  C  2 ZZ   -0.008743   0.043633  -0.002918  -0.011244   0.004148
   28  C  2 XY    0.022468  -0.056879   0.000048   0.029036  -0.003678
   29  C  2 XZ   -0.003128   0.007812   0.000936   0.003468  -0.024742
   30  C  2 YZ    0.000211  -0.006513  -0.023146   0.001522   0.013266
   31  C  3  S   -0.067599   0.003537   0.001549  -0.015345  -0.001324
   32  C  3  S   -0.210500  -0.366301   0.016568  -0.357667  -0.007961
   33  C  3  X   -0.365944   0.376883  -0.003885  -0.200261  -0.012442
   34  C  3  Y   -0.118318   0.398469  -0.012307  -0.111377   0.033203
   35  C  3  Z    0.074459   0.012951   0.100971  -0.024151  -0.962095
   36  C  3  S    0.554765   0.121162   0.006513   0.065180   0.019621
   37  C  3  X    1.400888   0.229315  -0.016053   0.354218   0.038402
   38  C  3  Y   -0.209426  -0.197798   0.015664   0.554468  -0.068669
   39  C  3  Z   -0.095966  -0.045030  -0.212589   0.027892   1.559928
   40  C  3 XX   -0.129850  -0.082907   0.008981  -0.001166  -0.004768
   41  C  3 YY   -0.027311  -0.017292   0.003115  -0.142434   0.001428
   42  C  3 ZZ    0.052737   0.010032  -0.005989   0.046010   0.000353
   43  C  3 XY    0.033941  -0.041769  -0.000141  -0.048299   0.004240
   44  C  3 XZ    0.012735   0.005912   0.049405   0.001217   0.008556
   45  C  3 YZ   -0.006087   0.000197  -0.012569  -0.001024   0.030424
   46  C  4  S    0.010421   0.004126  -0.000303  -0.037335   0.002574
   47  C  4  S   -0.367307  -0.221612   0.007909  -0.373915   0.004732
   48  C  4  X    0.599193   0.125141   0.022934  -0.212624   0.039139
   49  C  4  Y   -0.223545   0.276985  -0.007340  -0.063834  -0.004176
   50  C  4  Z    0.051594   0.008765   0.730592   0.026716   0.442084
   51  C  4  S   -0.672608   0.141229   0.001245   0.849416  -0.039234
   52  C  4  X   -0.373194   0.182096  -0.020029   0.622906  -0.077447
   53  C  4  Y    0.218824  -0.907119   0.002217   0.047612   0.016879
   54  C  4  Z   -0.058177  -0.020712  -0.775282  -0.051717  -0.882020
   55  C  4 XX   -0.039919   0.030451  -0.001661  -0.080663   0.004837
   56  C  4 YY   -0.006074  -0.065643   0.000021  -0.088826   0.004611
   57  C  4 ZZ   -0.000429   0.002647   0.001850   0.056006  -0.005008
   58  C  4 XY    0.012541   0.032923   0.001243  -0.030857  -0.001538
   59  C  4 XZ   -0.002099  -0.002621  -0.029063   0.007041   0.029157
   60  C  4 YZ    0.001455  -0.001600  -0.007005  -0.001037   0.006608
   61  H  5  S   -0.249045  -0.321097   0.000694   0.323317  -0.013280
   62  H  5  S    0.172370   0.184697  -0.013222   0.223310   0.009993
   63  H  6  S   -0.175404   0.137806   0.011515  -0.431958   0.000428
   64  H  6  S    0.164635  -0.095797   0.000325  -0.066842   0.007204
   65  H  7  S    0.060425  -0.373782  -0.003162  -0.233793   0.017512
   66  H  7  S    0.122002  -0.388893  -0.003612  -0.144326   0.007400
   67  H  8  S   -0.024181   0.137237  -0.000163  -0.445708   0.018095
   68  H  8  S   -0.051948   0.083362  -0.003102  -0.243845   0.019310

                     31         32         33         34         35
                    0.6611     0.6724     0.8096     0.8291     0.8554
                     A          A          A          A          A   
    1  O  1  S   -0.011329   0.041825   0.014217  -0.006759   0.004942
    2  O  1  S   -0.001105  -0.123925  -0.146734   0.161755  -0.387154
    3  O  1  X    0.076143  -0.337577   0.256464  -0.242639   0.469264
    4  O  1  Y   -0.267365   0.104754  -0.112196   0.087574  -0.232264
    5  O  1  Z   -0.026529   0.033332  -0.022689   0.015972  -0.046753
    6  O  1  S   -0.010649   0.105370  -0.572644   0.096990   0.327259
    7  O  1  X   -0.006467  -0.294477  -0.692094   0.539943  -0.860194
    8  O  1  Y   -0.087404   0.016896  -0.081033  -0.168125   0.344869
    9  O  1  Z   -0.011703   0.028938   0.049608  -0.046594   0.085664
   10  O  1 XX   -0.073698   0.124065  -0.159760   0.103352  -0.164415
   11  O  1 YY    0.004154  -0.022679  -0.031520   0.061084  -0.172006
   12  O  1 ZZ    0.011442  -0.045071  -0.013454   0.045940  -0.131966
   13  O  1 XY    0.032977  -0.089965  -0.048915  -0.018044   0.063256
   14  O  1 XZ    0.007308  -0.020658   0.011035  -0.005991   0.007081
   15  O  1 YZ   -0.004116   0.009701   0.003489   0.002675  -0.007660
   16  C  2  S    0.021456  -0.051574  -0.000345  -0.031765   0.045258
   17  C  2  S   -0.315077   0.452828   0.455484   0.215221  -0.080683
   18  C  2  X    0.131346  -0.859242  -0.019712   0.147110  -0.146969
   19  C  2  Y   -0.387868   0.178597  -0.751238  -0.114015   0.378757
   20  C  2  Z   -0.061070   0.084403  -0.043429  -0.021770   0.035967
   21  C  2  S    0.115176   0.538835   0.447294  -1.848178   0.674944
   22  C  2  X    0.194303   1.076453  -0.136780  -0.305882  -0.183381
   23  C  2  Y    0.984420   0.394548   3.111634  -0.303322  -0.399246
   24  C  2  Z    0.106887  -0.083133   0.181089   0.009484  -0.013930
   25  C  2 XX    0.031427  -0.076882   0.174856  -0.105332   0.104193
   26  C  2 YY   -0.031493   0.048783  -0.035701  -0.027039   0.076808
   27  C  2 ZZ   -0.019164   0.047759   0.015212   0.075397  -0.092877
   28  C  2 XY   -0.054330   0.096935   0.001800   0.020063  -0.130437
   29  C  2 XZ   -0.007260   0.017913  -0.013958   0.016310  -0.025941
   30  C  2 YZ    0.002789  -0.006196  -0.002249  -0.007789   0.023596
   31  C  3  S   -0.052056  -0.017669   0.024997  -0.011548  -0.004548
   32  C  3  S    0.128812   0.399290   0.533361  -0.232462   0.033536
   33  C  3  X    0.562721   0.073722  -0.398836   0.203424   0.019661
   34  C  3  Y   -0.084649  -0.259368   0.177040   0.233940   0.143929
   35  C  3  Z    0.015191  -0.036403   0.026243  -0.004863   0.004384
   36  C  3  S   -0.466433  -0.863023  -1.457260   0.713714  -0.183836
   37  C  3  X   -0.415300   0.662656   2.423901  -0.970458  -0.137857
   38  C  3  Y    0.332174   0.558094  -0.588227  -1.464530  -0.576662
   39  C  3  Z   -0.058045   0.027901  -0.151365   0.021746  -0.004385
   40  C  3 XX   -0.086772   0.002852   0.029832  -0.057460  -0.034160
   41  C  3 YY   -0.045697   0.003603   0.091397   0.031195   0.033800
   42  C  3 ZZ    0.058683   0.026855  -0.016038  -0.001753   0.001713
   43  C  3 XY    0.029747  -0.021854  -0.045529  -0.033826  -0.030645
   44  C  3 XZ    0.007535  -0.001356  -0.002261   0.001974   0.000258
   45  C  3 YZ   -0.004104  -0.000714   0.003247   0.002536   0.000647
   46  C  4  S    0.067393   0.046635  -0.018181   0.002388   0.002036
   47  C  4  S    0.167053   0.269143   0.469897   0.001824  -0.244529
   48  C  4  X    0.366536   0.171118  -0.073700  -0.205191  -0.105583
   49  C  4  Y   -0.139686  -0.055007  -0.042171  -0.993248  -0.380930
   50  C  4  Z   -0.024715  -0.001378  -0.001937  -0.002660   0.001411
   51  C  4  S   -0.472515  -0.900104  -1.950144   0.022514   0.398357
   52  C  4  X   -0.529664  -0.018372   0.587996   0.612412   0.200869
   53  C  4  Y    0.178946  -0.193107  -0.279077   2.667192   0.980553
   54  C  4  Z    0.050139  -0.019487  -0.008320   0.004443   0.000763
   55  C  4 XX    0.113295   0.097879  -0.008706   0.054573   0.013781
   56  C  4 YY    0.086314   0.048145   0.019735  -0.050283  -0.042911
   57  C  4 ZZ   -0.075072  -0.047369   0.032900   0.007371  -0.011928
   58  C  4 XY   -0.067212   0.031276   0.023414   0.069125   0.062758
   59  C  4 XZ   -0.011143  -0.004612   0.003209  -0.000975  -0.001115
   60  C  4 YZ    0.003294   0.000077  -0.001729  -0.003322  -0.003674
   61  H  5  S    0.162484   0.049599  -0.343542  -0.209475   0.597284
   62  H  5  S    0.452683   0.140871   2.191674   0.370488  -0.960719
   63  H  6  S   -0.342263   0.058268   0.162681   0.028107   0.072132
   64  H  6  S   -0.054820   0.003789   0.632187   0.385462   0.230505
   65  H  7  S    0.442089   0.156762  -0.146126  -0.369891  -0.200218
   66  H  7  S   -0.034721  -0.026823   0.109753   1.820190   0.725440
   67  H  8  S    0.224276   0.306647  -0.024591   0.349550   0.289043
   68  H  8  S    0.213660  -0.037629   0.126783  -1.639061  -0.862356

                     36         37         38         39         40
                    0.8776     0.9058     0.9495     0.9863     1.0582
                     A          A          A          A          A   
    1  O  1  S    0.000739   0.003023   0.002351  -0.001115  -0.000241
    2  O  1  S   -0.076549   0.210147   0.168524  -0.014420   0.020908
    3  O  1  X    0.048212   0.004575  -0.045733  -0.049982   0.309769
    4  O  1  Y   -0.047493   0.022425   0.022148   0.062452   0.652693
    5  O  1  Z   -0.017021  -0.029936   0.009267  -0.939156   0.040226
    6  O  1  S    0.068928  -0.753461  -0.683342   0.085905   0.000361
    7  O  1  X   -0.156606  -0.106437  -0.012332   0.081986  -0.485053
    8  O  1  Y   -0.064684  -0.157233  -0.123113  -0.063584  -1.096029
    9  O  1  Z    0.018902   0.036153  -0.009827   1.253400  -0.064947
   10  O  1 XX   -0.056906   0.026654   0.022214  -0.005383   0.072448
   11  O  1 YY   -0.030343   0.044326   0.021260  -0.006562  -0.047057
   12  O  1 ZZ    0.011053   0.125050   0.128926  -0.007187  -0.024757
   13  O  1 XY    0.018215  -0.016590   0.012556   0.002576   0.068838
   14  O  1 XZ    0.007629   0.008966   0.011744  -0.027845  -0.002006
   15  O  1 YZ   -0.004128  -0.002497  -0.007553   0.017778  -0.006869
   16  C  2  S   -0.013042  -0.017038  -0.016860   0.002007   0.012335
   17  C  2  S   -0.322677  -0.820933  -1.176480   0.037879   0.392647
   18  C  2  X   -0.001338  -0.110472  -0.120628  -0.004391   0.002717
   19  C  2  Y   -0.131659  -0.125783   0.101312   0.006886  -0.209622
   20  C  2  Z   -0.001536  -0.002282   0.017116   0.105741  -0.017412
   21  C  2  S    1.668707   2.623532   3.406192  -0.204239  -1.125513
   22  C  2  X    0.814011   0.596249   0.653885  -0.055477  -0.011949
   23  C  2  Y    0.548365   1.306964   0.581173  -0.123165   1.106005
   24  C  2  Z   -0.025062   0.011793  -0.029717  -0.573886   0.082255
   25  C  2 XX    0.056405  -0.062280  -0.112698   0.007853  -0.060462
   26  C  2 YY   -0.074544  -0.059522  -0.013731  -0.004142   0.100132
   27  C  2 ZZ   -0.000366   0.006759  -0.022222  -0.001148   0.009241
   28  C  2 XY   -0.005831   0.007117  -0.002596  -0.006245  -0.120686
   29  C  2 XZ   -0.003045   0.005661   0.007595   0.025048  -0.004906
   30  C  2 YZ   -0.003707  -0.002504   0.001204   0.017205   0.016825
   31  C  3  S    0.036129   0.010635   0.015110  -0.001707  -0.029733
   32  C  3  S   -0.535593  -0.092621   0.403470  -0.044808  -0.807411
   33  C  3  X    0.103523  -0.480059  -0.246417   0.013050   0.001648
   34  C  3  Y   -0.953584   0.098695   0.036789   0.015249   0.002724
   35  C  3  Z   -0.019232   0.020840   0.005731   0.038393  -0.008478
   36  C  3  S    0.323397   0.218360  -1.043271   0.170794   2.371988
   37  C  3  X    0.126939   2.593350   1.765116  -0.156352   0.687812
   38  C  3  Y    2.846190  -0.050792   0.216908  -0.100558  -0.137745
   39  C  3  Z    0.036442  -0.112615  -0.062430   0.082469  -0.028322
   40  C  3 XX   -0.118079   0.039772   0.051152  -0.000987  -0.028536
   41  C  3 YY    0.101765  -0.034751  -0.008967  -0.009389  -0.126700
   42  C  3 ZZ   -0.081209  -0.003145  -0.001325   0.002819   0.038173
   43  C  3 XY   -0.069874  -0.085528  -0.086678   0.003832  -0.033398
   44  C  3 XZ    0.001702  -0.003033  -0.003105  -0.007784   0.005305
   45  C  3 YZ    0.006006   0.002480  -0.000330   0.047315  -0.003955
   46  C  4  S   -0.006785   0.030011  -0.002771  -0.000577   0.015844
   47  C  4  S   -0.002897  -0.176716   1.292042   0.072469   0.607818
   48  C  4  X   -0.056005  -0.709705   0.168392   0.004328  -0.036275
   49  C  4  Y   -0.028917   0.124387  -0.116295  -0.001637   0.095631
   50  C  4  Z    0.001779   0.028838  -0.001294  -0.061893   0.004502
   51  C  4  S    0.529673  -0.918545  -3.404151  -0.110148  -2.287833
   52  C  4  X   -0.308895   1.926038   0.150768  -0.011838   0.559223
   53  C  4  Y   -0.515794  -0.610160  -0.076363   0.093321  -0.593855
   54  C  4  Z    0.005189  -0.081797  -0.020931   0.079316  -0.035263
   55  C  4 XX    0.060190  -0.074593   0.101690   0.000779   0.015648
   56  C  4 YY   -0.042993   0.136557   0.012217   0.003462   0.043606
   57  C  4 ZZ   -0.005961  -0.097857   0.064307   0.006450   0.026812
   58  C  4 XY    0.049895   0.109634   0.012379  -0.007013   0.030285
   59  C  4 XZ   -0.002670   0.000525  -0.003295   0.015813  -0.000816
   60  C  4 YZ   -0.002193  -0.002165  -0.002055   0.023474  -0.001872
   61  H  5  S   -0.082628  -0.008343   0.288952  -0.023846   0.124508
   62  H  5  S    0.165415   0.271469  -0.815915  -0.040516   0.758129
   63  H  6  S    0.689742  -0.036779   0.004690  -0.012249  -0.180776
   64  H  6  S   -2.534645   0.393895   0.299052   0.023089  -0.141299
   65  H  7  S   -0.091739   0.521931  -0.383606   0.005880   0.010763
   66  H  7  S   -0.094335  -1.035879   1.045616   0.082346   0.011344
   67  H  8  S    0.012095   0.597523  -0.255038  -0.040130   0.114427
   68  H  8  S    0.084135  -1.195655   0.778343   0.047252   0.352735

                     41         42         43         44         45
                    1.0789     1.1498     1.2772     1.3352     1.4405
                     A          A          A          A          A   
    1  O  1  S    0.009285   0.003121  -0.038067  -0.012303  -0.010517
    2  O  1  S   -0.082475   0.155693  -0.341435  -0.084189  -0.180535
    3  O  1  X   -0.306007  -0.023289   0.166178   0.069974  -0.034665
    4  O  1  Y    0.043174  -0.448187   0.099999   0.024135   0.013260
    5  O  1  Z   -0.020636  -0.006060  -0.020842   0.033275  -0.018021
    6  O  1  S   -0.681836  -0.282968   1.744051   0.549614   0.559403
    7  O  1  X    0.291807   0.125864   0.154529   0.040826   0.168489
    8  O  1  Y   -0.328859   0.971473  -0.217010  -0.054778  -0.043954
    9  O  1  Z    0.041914   0.016520  -0.040646   0.055185  -0.190907
   10  O  1 XX   -0.043900   0.030525  -0.143450  -0.043270  -0.022823
   11  O  1 YY   -0.029727   0.089905  -0.052549  -0.023503  -0.022829
   12  O  1 ZZ    0.074742  -0.021014  -0.159836  -0.030278  -0.093239
   13  O  1 XY    0.041944  -0.066409   0.012712   0.024140  -0.011455
   14  O  1 XZ    0.007906  -0.003563   0.008805  -0.066230   0.246495
   15  O  1 YZ   -0.003018   0.014702  -0.048763   0.181858  -0.090415
   16  C  2  S   -0.005751   0.025260  -0.028072  -0.008092  -0.002745
   17  C  2  S    0.179431   0.534300  -0.344202  -0.118216  -0.014795
   18  C  2  X    0.313483   0.147878   0.125218   0.024517  -0.010982
   19  C  2  Y   -0.163964   0.172434   0.090727   0.033005   0.006282
   20  C  2  Z   -0.020089  -0.005850   0.015960  -0.026523  -0.111108
   21  C  2  S    0.790107  -1.311873   2.244393   0.627450  -0.335678
   22  C  2  X   -0.755424  -1.110988   2.319921   0.735088   0.183341
   23  C  2  Y    2.248899  -1.318552  -1.039060  -0.450049  -0.143732
   24  C  2  Z    0.117666   0.021835  -0.205448  -0.132327   0.152330
   25  C  2 XX   -0.062954   0.060340   0.015841   0.052795  -0.063451
   26  C  2 YY    0.169960  -0.018053   0.009709  -0.033532   0.005974
   27  C  2 ZZ   -0.043014  -0.006504  -0.046795  -0.028866   0.053289
   28  C  2 XY    0.051617   0.026544   0.090217   0.036209   0.041494
   29  C  2 XZ    0.024235  -0.010718  -0.091205   0.337221  -0.366100
   30  C  2 YZ    0.025498   0.001901  -0.128476   0.365690   0.128307
   31  C  3  S   -0.000885  -0.045642   0.030430   0.009424  -0.001977
   32  C  3  S    0.150495  -1.280157   0.777336   0.217072  -0.042059
   33  C  3  X   -0.157819  -0.203399   0.058554   0.029128  -0.000773
   34  C  3  Y   -0.058678   0.038713  -0.383033  -0.108784   0.005961
   35  C  3  Z    0.011811   0.015284  -0.017140   0.018879   0.152835
   36  C  3  S   -0.147465   5.775829  -3.223086  -0.962684   0.193862
   37  C  3  X    2.731300   1.046910  -0.927014  -0.467787  -0.011436
   38  C  3  Y    0.470653  -0.195588   4.401471   1.307851  -0.098399
   39  C  3  Z   -0.149455  -0.052518   0.153601   0.008765  -0.083323
   40  C  3 XX    0.002371   0.004158   0.124556  -0.003022  -0.005723
   41  C  3 YY    0.034569  -0.127869  -0.061486  -0.011050  -0.016911
   42  C  3 ZZ    0.003193   0.006888  -0.049689   0.011348   0.022156
   43  C  3 XY    0.025089   0.024959   0.053046   0.013975   0.025686
   44  C  3 XZ   -0.020008  -0.000777   0.124140  -0.489349  -0.225925
   45  C  3 YZ   -0.013798  -0.000915   0.062896  -0.191782   0.538740
   46  C  4  S    0.007710   0.027007  -0.015633  -0.005944   0.001887
   47  C  4  S   -0.331782   1.038505  -0.244621  -0.058416   0.026615
   48  C  4  X    0.291063  -0.054774  -0.162146  -0.059949   0.001808
   49  C  4  Y    0.225314   0.132258  -0.023322  -0.016951  -0.009040
   50  C  4  Z   -0.008380   0.003185  -0.024117   0.116589   0.090649
   51  C  4  S   -1.215097  -4.198742   3.133145   1.047367  -0.122117
   52  C  4  X   -0.196434   1.000335  -1.349812  -0.416700   0.099731
   53  C  4  Y   -2.223375  -1.322893  -1.659008  -0.375588   0.080106
   54  C  4  Z    0.004190  -0.053327   0.021274   0.013522   0.000582
   55  C  4 XX    0.022327   0.001751   0.122940   0.056063   0.031272
   56  C  4 YY   -0.074867   0.077870  -0.070489  -0.011076   0.007004
   57  C  4 ZZ    0.005118   0.034046  -0.082653  -0.053174  -0.037142
   58  C  4 XY    0.142208   0.105181   0.030149  -0.015086  -0.002478
   59  C  4 XZ    0.010508   0.003677  -0.077574   0.279522   0.444239
   60  C  4 YZ   -0.011956  -0.002885   0.066203  -0.223215   0.118961
   61  H  5  S    0.579522  -0.108984  -0.520076  -0.189933  -0.003757
   62  H  5  S    0.767602  -0.309933  -0.771922  -0.293016  -0.033142
   63  H  6  S    0.052869  -0.325455  -0.763651  -0.229491   0.016073
   64  H  6  S    0.061723  -0.510619  -1.391206  -0.438550   0.016601
   65  H  7  S   -0.381526  -0.147454  -0.556745  -0.149936   0.022205
   66  H  7  S   -0.751793   0.068765  -0.806081  -0.200982   0.022858
   67  H  8  S    0.512687   0.315689   0.372637   0.083038  -0.018451
   68  H  8  S    0.576379   0.639589   0.265172   0.052850  -0.038575

                     46         47         48         49         50
                    1.5284     1.5442     1.6563     1.7670     1.7888
                     A          A          A          A          A   
    1  O  1  S   -0.094983  -0.007606   0.000958  -0.045592   0.005547
    2  O  1  S   -1.641850  -0.120947   0.019346  -0.793082   0.114356
    3  O  1  X   -0.240817  -0.015843   0.008120  -0.047481   0.111638
    4  O  1  Y    0.100132   0.015568  -0.001709  -0.027744   0.222681
    5  O  1  Z    0.044130  -0.098098   0.039559   0.007663   0.003578
    6  O  1  S    5.317589   0.423785  -0.054601   2.967801  -0.332854
    7  O  1  X    1.690197   0.114594  -0.027182   0.917617  -0.250128
    8  O  1  Y   -0.457328  -0.037961   0.005505  -0.077682  -0.359639
    9  O  1  Z   -0.160292  -0.075915  -0.072494  -0.088469  -0.000228
   10  O  1 XX   -0.558428   0.020845   0.017803  -0.312088  -0.268969
   11  O  1 YY   -0.140975  -0.010966  -0.030204  -0.548749   0.066365
   12  O  1 ZZ   -0.488207  -0.097299   0.025295   0.385289   0.278184
   13  O  1 XY    0.085086  -0.014464   0.021631  -0.152316  -0.460968
   14  O  1 XZ   -0.046908   0.453100   0.078478   0.055018   0.019507
   15  O  1 YZ    0.030133   0.083360   0.324989  -0.018957   0.010125
   16  C  2  S   -0.016648  -0.001884   0.000328   0.013846   0.017695
   17  C  2  S   -0.084650  -0.019270  -0.006723   0.397533  -0.153504
   18  C  2  X   -0.038502  -0.010282  -0.004695   0.202679  -0.099447
   19  C  2  Y    0.028077   0.013431   0.000367   0.215291   0.061427
   20  C  2  Z    0.020914  -0.153745  -0.032054  -0.001428   0.011514
   21  C  2  S   -3.474559  -0.153325   0.051042  -2.438154   0.044295
   22  C  2  X    1.736061   0.222966   0.011546   0.947770   0.129735
   23  C  2  Y   -1.580306  -0.146191  -0.001322  -1.746668   0.756496
   24  C  2  Z   -0.239320   0.075268   0.187530  -0.156911   0.033245
   25  C  2 XX   -0.071119  -0.048006   0.027299  -0.159046   0.232993
   26  C  2 YY    0.150198  -0.042088  -0.032922  -0.234267  -0.324468
   27  C  2 ZZ   -0.122087   0.086377   0.005822   0.455127   0.064720
   28  C  2 XY    0.157663   0.082215   0.014251  -0.112218   0.350321
   29  C  2 XZ    0.069275  -0.292981   0.184159   0.066050   0.003313
   30  C  2 YZ   -0.040843   0.521048   0.291356  -0.028415  -0.055155
   31  C  3  S   -0.022552   0.001074   0.000927  -0.000937   0.019590
   32  C  3  S   -0.569467   0.009208   0.016637   0.151615  -0.212230
   33  C  3  X   -0.035051   0.006491   0.002977  -0.080630   0.263524
   34  C  3  Y    0.121360  -0.006577  -0.003819  -0.146435   0.055634
   35  C  3  Z   -0.006101  -0.037977  -0.032834   0.001094  -0.010059
   36  C  3  S    2.264978  -0.066874  -0.083701   0.153167  -0.453844
   37  C  3  X   -0.440316  -0.116321  -0.059885  -1.364089  -0.409427
   38  C  3  Y   -0.833337   0.117569   0.053100   0.566530   0.024853
   39  C  3  Z    0.032754  -0.080774  -0.203007   0.083109   0.021998
   40  C  3 XX    0.090459   0.016437   0.005705  -0.097173   0.052017
   41  C  3 YY    0.028593  -0.000329   0.004239  -0.208509  -0.035971
   42  C  3 ZZ   -0.135281  -0.019929  -0.010970   0.374575  -0.005152
   43  C  3 XY    0.025923  -0.000578   0.002781  -0.201271   0.372923
   44  C  3 XZ    0.005649   0.087445   0.125193   0.019615  -0.001281
   45  C  3 YZ   -0.029595  -0.269827  -0.054648   0.000339  -0.017024
   46  C  4  S    0.013559  -0.000314  -0.000727   0.007775  -0.002027
   47  C  4  S    0.328045  -0.003355  -0.005907   0.065442   0.026512
   48  C  4  X   -0.089817  -0.012845  -0.008356  -0.078517  -0.104220
   49  C  4  Y   -0.107473  -0.005847  -0.000842   0.043089  -0.093926
   50  C  4  Z   -0.009055  -0.067322  -0.038511   0.001353   0.006588
   51  C  4  S   -1.033066   0.133152   0.084843   0.824418   0.349636
   52  C  4  X    1.036620  -0.021311  -0.032230  -0.368514  -0.192866
   53  C  4  Y    0.866270   0.005764  -0.002664   0.341087  -0.096416
   54  C  4  Z   -0.026387   0.079929   0.096283   0.017755  -0.000625
   55  C  4 XX   -0.000136  -0.019781  -0.000590   0.021008  -0.192128
   56  C  4 YY    0.143124   0.010632  -0.011319  -0.224837   0.165466
   57  C  4 ZZ   -0.145558   0.009753   0.013240   0.218798   0.071691
   58  C  4 XY   -0.030168  -0.009021   0.028643  -0.015338  -0.157347
   59  C  4 XZ   -0.038008  -0.327688   0.055737   0.003461   0.026891
   60  C  4 YZ    0.013107  -0.210563   0.851050  -0.017789   0.004536
   61  H  5  S   -0.067149  -0.020296   0.002531  -0.003503   0.564013
   62  H  5  S   -0.371379  -0.053507  -0.005538  -0.471876   0.119196
   63  H  6  S    0.014256  -0.011197  -0.007404  -0.116143   0.148479
   64  H  6  S    0.028763  -0.050096  -0.015607  -0.283189  -0.089462
   65  H  7  S    0.170718  -0.010628  -0.007677   0.220126  -0.259905
   66  H  7  S    0.265052  -0.015786  -0.002242   0.058090   0.060363
   67  H  8  S   -0.181442  -0.001549   0.003196   0.005110   0.196119
   68  H  8  S   -0.465782  -0.013328   0.001308  -0.015409   0.029932

                     51         52         53         54         55
                    1.8427     1.9159     1.9871     2.0326     2.1250
                     A          A          A          A          A   
    1  O  1  S    0.002815   0.000750  -0.006580   0.003777   0.001814
    2  O  1  S    0.035403   0.107512   0.116610   0.306562   0.006721
    3  O  1  X   -0.006803   0.170603   0.069057   0.195810  -0.032028
    4  O  1  Y    0.005601  -0.096633  -0.123757   0.047196   0.022880
    5  O  1  Z    0.046284  -0.017000  -0.014353  -0.020410   0.065795
    6  O  1  S   -0.167485  -0.144167  -0.066326  -0.790196  -0.156348
    7  O  1  X   -0.051908  -0.112821   0.053690  -0.363412  -0.063655
    8  O  1  Y    0.004642   0.013394   0.246938  -0.213215  -0.020501
    9  O  1  Z   -0.066430   0.007249   0.015201   0.036497  -0.187786
   10  O  1 XX    0.027673   0.016925   0.072900  -0.178390  -0.067542
   11  O  1 YY   -0.082345   0.359585  -0.496461   0.402277   0.018580
   12  O  1 ZZ    0.072872  -0.252704   0.448260  -0.077986   0.034377
   13  O  1 XY    0.058257   0.154412  -0.072954  -0.361814  -0.043074
   14  O  1 XZ    0.103433  -0.023834   0.034963   0.025637  -0.388829
   15  O  1 YZ    0.815670   0.059105  -0.053974   0.093977  -0.245121
   16  C  2  S   -0.000989   0.005979   0.012775  -0.007971  -0.010681
   17  C  2  S   -0.008353  -0.231542   0.071499   0.045573  -0.048170
   18  C  2  X   -0.007005   0.046372  -0.029864   0.249914   0.001919
   19  C  2  Y   -0.011842  -0.069859  -0.182585   0.129830   0.001834
   20  C  2  Z    0.088033  -0.000185  -0.007172  -0.016051   0.076410
   21  C  2  S    0.103405   0.970092  -0.909552   0.760240   0.339519
   22  C  2  X   -0.067600   0.371830  -0.559063  -0.094920   0.028493
   23  C  2  Y    0.093830   0.553827  -0.604065   1.080127   0.189199
   24  C  2  Z    0.131087  -0.005946  -0.008091   0.032937   0.330729
   25  C  2 XX    0.032785  -0.233384  -0.214437  -0.083081   0.106487
   26  C  2 YY    0.006156   0.232068   0.426816   0.048366  -0.042453
   27  C  2 ZZ   -0.045215   0.109926  -0.268925   0.050953  -0.083674
   28  C  2 XY   -0.018056   0.158546  -0.009915   0.221059   0.025656
   29  C  2 XZ    0.048783   0.035035  -0.012746   0.003371   0.181764
   30  C  2 YZ   -0.139257  -0.025271   0.035555  -0.070938   0.584098
[...]

          ATOMIC WEIGHTS (AMU)

    1     O                15.99491
    2     C                12.00000
    3     C                12.00000
    4     C                12.00000
    5     H                 1.00782
    6     H                 1.00782
    7     H                 1.00782
    8     H                 1.00782

 MODES    1 TO    6 ARE TAKEN AS ROTATIONS AND TRANSLATIONS.

 ANALYZING SYMMETRY OF NORMAL MODES...

     FREQUENCIES IN CM**-1, IR INTENSITIES IN DEBYE**2/AMU-ANGSTROM**2,
     REDUCED MASSES IN AMU.

                            1           2           3           4           5
       FREQUENCY:         7.60        3.93        0.17        0.13        0.18  
        SYMMETRY:         A           A           A           A           A   
    REDUCED MASS:      1.62709     4.76028     6.93833     6.77476     6.91207
    IR INTENSITY:      0.01956     0.08291     0.00004     0.00013     0.00003

  1   O            X  0.00047305 -0.00798394  0.10135725 -0.01851554  0.08509064
                   Y  0.00433901  0.16045197 -0.08238257  0.00437785  0.09971999
                   Z  0.01437819  0.00496863  0.01696477  0.12573452  0.00839857
  2   C            X -0.00664830 -0.03921747  0.10079228 -0.01833609  0.08568637
                   Y  0.00429637  0.05386598 -0.08430302  0.00431487  0.10178509
                   Z -0.11832808  0.00696289  0.01689171  0.12950491  0.00813850
  3   C            X  0.00811733  0.04564497  0.10233553 -0.01810065  0.08405883
                   Y -0.00574773 -0.05007655 -0.08617118  0.00421111  0.10377978
                   Z  0.13898062 -0.00803581  0.01658209  0.13509351  0.00868119
  4   C            X -0.00122603  0.00502883  0.10159644 -0.01788311  0.08482349
                   Y -0.00425430 -0.16521892 -0.08824733  0.00415444  0.10601078
                   Z -0.02860325 -0.00500054  0.01651678  0.13904340  0.00835362
  5   H            X -0.02521977 -0.13715265  0.09903186 -0.01831914  0.08755052
                   Y  0.01222451  0.02762695 -0.08476296  0.00434833  0.10229792
                   Z -0.45346710  0.02065671  0.01706268  0.12893615  0.00745181
  6   H            X  0.02682057  0.14185408  0.10405517 -0.01810700  0.08221426
                   Y -0.01406012 -0.02767768 -0.08576187  0.00418905  0.10333423
                   Z  0.46812533 -0.02161635  0.01641675  0.13579739  0.00935508
  7   H            X -0.02004666 -0.09145849  0.09983015 -0.01788723  0.08666624
                   Y  0.00415644 -0.18539563 -0.08860172  0.00418852  0.10641197
                   Z -0.35920729  0.00879798  0.01668830  0.13823503  0.00767546
  8   H            X  0.00947302  0.06569928  0.10267013 -0.01771317  0.08366512
                   Y -0.01117462 -0.24291615 -0.08964009  0.00408553  0.10750025
                   Z  0.15463531 -0.01588525  0.01629617  0.14318247  0.00874018

 TRANS. SAYVETZ    X  0.00143933 -0.01144901  5.68665216 -1.02058265  4.75859874
                   Y -0.00798886  0.19754654 -4.77385587  0.23913123  5.75674731
                   Z -0.05683044 -0.00151857  0.93822099  7.40523869  0.46989654
               TOTAL  0.05740726  0.19788385  7.48384736  7.47905962  7.48366249

   ROT. SAYVETZ    X  6.24996580 -1.17614082 -0.02159903  0.10901374  0.02924516
                   Y -1.31245719  0.69964115  0.02727057 -0.78056325 -0.00447691
                   Z -0.94961213-20.62133783 -0.37143583 -0.01757504  0.39780547
               TOTAL  6.45649902 20.66669734  0.37306136  0.78833487  0.39890414

                            6           7           8           9          10
       FREQUENCY:         3.29      174.75      320.91      572.28      610.81  
        SYMMETRY:         A           A           A           A           A   
    REDUCED MASS:      5.80420     3.46421     2.69724     4.91467     1.18083
    IR INTENSITY:      0.09797     0.09432     0.22076     0.13848     0.17334

  1   O            X  0.00700411  0.00533144 -0.00487396  0.14006590  0.00187423
                   Y -0.00515096 -0.00320013 -0.10115135  0.06714361  0.00074634
                   Z  0.17157452  0.12156170 -0.00249335 -0.00465473 -0.00071352
  2   C            X  0.00165328 -0.00623915  0.04736030  0.08254583  0.00244312
                   Y -0.00130791  0.00354193  0.09589410 -0.07804343 -0.00157731
                   Z  0.05040549 -0.13203411  0.00009250 -0.00648989  0.02738610
  3   C            X -0.00318330 -0.00602857  0.01547644 -0.09677767 -0.00665508
                   Y  0.00174577  0.00338340  0.13890715  0.00906091  0.00322654
                   Z -0.04172193 -0.12670035  0.00326518  0.00599576 -0.11099032
  4   C            X -0.00954359  0.00534150 -0.06500094 -0.13008430 -0.00116511
                   Y  0.00591721 -0.00281053 -0.08820870 -0.00194682 -0.00052196
                   Z -0.17467885  0.10336869  0.00073567  0.00609919  0.01373875
  5   H            X -0.00001290 -0.01507724  0.20015846  0.04856723  0.01935272
                   Y  0.00016676  0.00862721  0.13243673 -0.08589954 -0.01134636
                   Z  0.00020387 -0.32632861 -0.00718812 -0.01039308  0.39940634
  6   H            X -0.00144813 -0.00854184  0.12725799 -0.24291780  0.01241828
                   Y  0.00038289  0.00474532  0.16255549 -0.02807706 -0.00887648
                   Z  0.00417566 -0.17740469 -0.00137497  0.00632369  0.31781070
  7   H            X -0.01121065  0.00967726 -0.31883053 -0.23965371 -0.02605147
                   Y  0.00719188 -0.00526285 -0.14123634 -0.02417832  0.01219468
                   Z -0.21835454  0.19343178  0.01210837  0.01770047 -0.46731319
  8   H            X -0.01331384  0.01174635  0.09450378 -0.07040944  0.02852918
                   Y  0.00817237 -0.00629346 -0.29390811 -0.08317400 -0.01719338
                   Z -0.24437226  0.23123291 -0.01269678 -0.00636606  0.59325525

 TRANS. SAYVETZ    X -0.04704225 -0.00005138 -0.00003259  0.00018713 -0.00003013
                   Y  0.00991015  0.00002226 -0.00004504 -0.00025681  0.00004600
                   Z  0.29044170  0.00029177  0.00001635  0.00013054 -0.00004144
               TOTAL  0.29439356  0.00029710  0.00005795  0.00034352  0.00006885

   ROT. SAYVETZ    X -1.54024360  0.01035682 -0.00840142  0.00058284  0.00094237
                   Y 19.56760078  0.01006738 -0.00425976 -0.00080773  0.00004709
                   Z  0.71073926 -0.00569734 -0.01154033 -0.00280546 -0.00282134
               TOTAL 19.64099032  0.01552661  0.01489660  0.00297704  0.00297493

                           11          12          13          14          15
       FREQUENCY:       929.29      992.04     1022.78     1043.53     1180.32  
        SYMMETRY:         A           A           A           A           A   
    REDUCED MASS:      1.57942     1.33948     1.63993     1.17008     2.01283
    IR INTENSITY:      0.51450     0.84436     0.19233     0.19640     0.86533

  1   O            X -0.02717122 -0.00027086  0.00152008  0.00113947  0.01218592
                   Y  0.01606383  0.00013148 -0.00087846 -0.00071203  0.02205416
                   Z  0.00164361 -0.00820357  0.03427015  0.02365338  0.00005920
  2   C            X -0.05345216  0.00158176 -0.00644553 -0.00464489 -0.05209327
                   Y -0.10851573 -0.00020281  0.00340276  0.00335874 -0.14720506
                   Z -0.00024025  0.02934022 -0.13806444 -0.10645623 -0.00159207
  3   C            X  0.04565325  0.00142897  0.00574716 -0.00119189  0.03809550
                   Y  0.05881388 -0.00131398 -0.00297821  0.00020546  0.12766857
                   Z -0.00069815  0.03288440  0.11629191 -0.02077899  0.00151368
  4   C            X  0.07667234 -0.00732308 -0.00136592 -0.00058125 -0.03971791
                   Y  0.07416539  0.00356738  0.00088956 -0.00000315 -0.02898901
                   Z -0.00240993 -0.14289201 -0.02786982 -0.00712077  0.00113067
  5   H            X -0.16847588 -0.00418702  0.02404211  0.02160767 -0.09897853
                   Y -0.13776043  0.00345163 -0.01404194 -0.01128668 -0.16377838
                   Z  0.00462407 -0.10636023  0.52880705  0.45768114  0.00066104
  6   H            X -0.22634543  0.00131780 -0.02478373  0.02943771  0.53144704
                   Y  0.00084888 -0.00031921  0.01375484 -0.01672561  0.24347031
                   Z  0.01433702  0.00576256 -0.50300161  0.60445782 -0.01833513
  7   H            X -0.42149622  0.02995493 -0.00721050  0.02229892  0.17367529
                   Y -0.03678287 -0.01527256  0.00351692 -0.01169297  0.01907432
                   Z  0.02386626  0.57410512 -0.13166900  0.43576936 -0.00721366
  8   H            X  0.42737805  0.02856296  0.00840165 -0.01501267 -0.15992835
                   Y -0.37239548 -0.01436707 -0.00492677  0.00860695  0.12909422
                   Z -0.02912074  0.61719816  0.15304550 -0.27353402  0.01134409

 TRANS. SAYVETZ    X -0.00010310  0.00000361 -0.00000486 -0.00000258  0.00003163
                   Y  0.00013890 -0.00000455  0.00000827  0.00000209  0.00009186
                   Z -0.00007682  0.00001625 -0.00000906  0.00001685 -0.00007539
               TOTAL  0.00018927  0.00001725  0.00001320  0.00001717  0.00012297

   ROT. SAYVETZ    X  0.00017669 -0.00083014 -0.00083924  0.00061690 -0.00025552
                   Y -0.00007651 -0.00093654 -0.00002016 -0.00008656  0.00025119
                   Z -0.00318351  0.00168474 -0.00018354  0.00057132 -0.00061940
               TOTAL  0.00318933  0.00209871  0.00085931  0.00084525  0.00071557

                           16          17          18          19          20
       FREQUENCY:      1308.61     1409.39     1474.65     1700.61     1803.49  
        SYMMETRY:         A           A           A           A           A   
    REDUCED MASS:      1.47855     1.19621     1.22600     4.00604     9.43338
    IR INTENSITY:      0.05427     0.13787     0.23724     0.05559     4.98875

  1   O            X  0.01073350 -0.03047046  0.04104523 -0.03470494 -0.14159138
                   Y -0.00194497  0.04468093 -0.02920843  0.00674101  0.03980446
                   Z -0.00055036  0.00256010 -0.00264002  0.00176294  0.00752560
  2   C            X  0.00129331 -0.02257526  0.01467378  0.01729870  0.21894298
                   Y  0.01969452 -0.05592944  0.04687486 -0.00966704 -0.04658734
                   Z  0.00045134 -0.00042421  0.00051294 -0.00100722 -0.01127977
  3   C            X -0.01412232 -0.07744080 -0.09820200  0.18009357 -0.03571477
                   Y -0.12503207  0.00028589 -0.00132996 -0.03435506  0.00604553
                   Z -0.00276625  0.00381809  0.00474264 -0.00973526  0.00188549
  4   C            X -0.03596190  0.02604995 -0.01653043 -0.17123083  0.00998161
                   Y  0.10609304 -0.00039098  0.01908644  0.05346658 -0.00578668
                   Z  0.00468481 -0.00133819  0.00127615  0.00987131 -0.00065871
  5   H            X  0.08568631  0.76457724 -0.46502585  0.07152080 -0.11464119
                   Y  0.03757954  0.13352742 -0.05500480  0.00022774 -0.10779742
                   Z -0.00292937 -0.03155537  0.01982951 -0.00346640  0.00249146
  6   H            X  0.66701065  0.05961615  0.17653181 -0.11723124  0.08148837
                   Y  0.01726955  0.03596936  0.06297410 -0.12538188  0.02610006
                   Z -0.03208871 -0.00164224 -0.00669695  0.00232752 -0.00324609
  7   H            X -0.42487012  0.30145047  0.47927591  0.24294293 -0.01823186
                   Y  0.02822915  0.04217871  0.11052181  0.15533341 -0.00908686
                   Z  0.02145073 -0.01335525 -0.02020270 -0.00749787  0.00058288
  8   H            X  0.08283156  0.23871300  0.34936823  0.04197418 -0.00202067
                   Y -0.06127656 -0.25357320 -0.42466705 -0.24969700  0.01066193
                   Z -0.00588846 -0.01858001 -0.02869260 -0.00888385  0.00050613

 TRANS. SAYVETZ    X  0.00006215  0.00006739  0.00018771 -0.00008672 -0.00004685
                   Y -0.00007148  0.00002761 -0.00018197 -0.00007981 -0.00002242
                   Z  0.00002774 -0.00002571  0.00011139  0.00008641  0.00007246
               TOTAL  0.00009870  0.00007723  0.00028417  0.00014614  0.00008915

   ROT. SAYVETZ    X  0.00038319 -0.00058702 -0.00022307 -0.00009062  0.00018964
                   Y  0.00022502 -0.00045375 -0.00029183 -0.00006599  0.00005308
                   Z -0.00180286  0.00008578  0.00206643  0.00173880  0.00008741
               TOTAL  0.00185682  0.00074689  0.00209882  0.00174241  0.00021546

                           21          22          23          24
       FREQUENCY:      2898.56     3159.56     3195.16     3247.71  
        SYMMETRY:         A           A           A           A   
    REDUCED MASS:      1.08411     1.05995     1.09408     1.11499
    IR INTENSITY:      2.52109     0.14931     0.06596     0.18893

  1   O            X  0.00191775  0.00053883 -0.00090856 -0.00010821
                   Y  0.00011161  0.00004657  0.00015830  0.00004111
                   Z -0.00008465 -0.00002371  0.00004495  0.00000600
  2   C            X  0.01421365 -0.00091679  0.00279163  0.00044340
                   Y -0.07859887 -0.00122191  0.00027669 -0.00002561
                   Z -0.00270506  0.00000966 -0.00012033 -0.00002105
  3   C            X  0.00269065 -0.00424508  0.02115101  0.00526323
                   Y  0.00068155 -0.00711739 -0.07930786 -0.01467867
                   Z -0.00011721  0.00001070 -0.00318819 -0.00065874
  4   C            X -0.00108666  0.05463166 -0.00365361 -0.04501082
                   Y  0.00050626 -0.03747167  0.02004545 -0.08046198
                   Z  0.00006695 -0.00371955  0.00071669  0.00008339
  5   H            X -0.21512990  0.00004987 -0.00086450  0.00212867
                   Y  0.93184239  0.01165996  0.00450337  0.00460707
                   Z  0.03421724  0.00032166  0.00014143  0.00002572
  6   H            X  0.00151802 -0.02302562 -0.20268751 -0.03572981
                   Y -0.00665829  0.10689403  0.91067240  0.15298792
                   Z -0.00024905  0.00401899  0.03456884  0.00588310
  7   H            X -0.00396342 -0.15125518  0.03335408 -0.10939040
                   Y -0.01148442  0.77566151 -0.16943957  0.49628779
                   Z -0.00011314  0.02832547 -0.00620921  0.01876018
  8   H            X -0.00122675 -0.42343367 -0.05700951  0.61269868
                   Y  0.00630602 -0.34941663 -0.04587337  0.47859089
                   Z  0.00023717  0.01169619  0.00160458 -0.01767331

 TRANS. SAYVETZ    X -0.00002828 -0.00008542 -0.00004927  0.00000147
                   Y  0.00005716  0.00007513  0.00004252 -0.00000212
                   Z -0.00005885 -0.00006001 -0.00004169 -0.00001034
               TOTAL  0.00008678  0.00012862  0.00007729  0.00001066

   ROT. SAYVETZ    X -0.00003277 -0.00009476 -0.00008023  0.00002718
                   Y  0.00010396  0.00014031  0.00007304 -0.00006304
                   Z -0.00019465 -0.00041847  0.00011707 -0.00011926
               TOTAL  0.00022309  0.00045142  0.00015962  0.00013761

 REFERENCE ON SAYVETZ CONDITIONS - A. SAYVETZ, J.CHEM.PHYS., 7, 383-389(1939).

 NOTE - THE MODES J,K ARE ORTHONORMALIZED ACCORDING TO
 SUM ON I   M(I) * (X(I,J)*X(I,K) + Y(I,J)*Y(I,K) + Z(I,J)*Z(I,K)) = DELTA(J,K)

  MODE FREQ(CM**-1)  SYMMETRY  RED. MASS  IR INTENS.
     1       7.598    A        1.627090    0.019559
     2       3.928    A        4.760276    0.082911
     3       0.171    A        6.938334    0.000037
     4       0.127    A        6.774759    0.000126
     5       0.175    A        6.912075    0.000032
     6       3.291    A        5.804203    0.097974
     7     174.748    A        3.464210    0.094319
     8     320.910    A        2.697244    0.220759
     9     572.277    A        4.914667    0.138481
    10     610.808    A        1.180829    0.173340
    11     929.293    A        1.579423    0.514504
    12     992.036    A        1.339476    0.844363
    13    1022.783    A        1.639929    0.192334
    14    1043.529    A        1.170080    0.196397
    15    1180.324    A        2.012830    0.865332
    16    1308.609    A        1.478554    0.054273
    17    1409.393    A        1.196209    0.137865
    18    1474.648    A        1.226003    0.237243
    19    1700.614    A        4.006036    0.055586
    20    1803.492    A        9.433382    4.988749
    21    2898.557    A        1.084108    2.521089
    22    3159.562    A        1.059952    0.149315
    23    3195.164    A        1.094078    0.065961
    24    3247.705    A        1.114992    0.188928

     -------------------------------
     THERMOCHEMISTRY AT T=  298.15 K
     -------------------------------

 USING IDEAL GAS, RIGID ROTOR, HARMONIC NORMAL MODE APPROXIMATIONS.
 P=  1.01325E+05 PASCAL.
 ALL FREQUENCIES ARE SCALED BY   1.00000
 THE MOMENTS OF INERTIA ARE (IN AMU*BOHR**2)
             37.63428           390.10982           427.74343
 THE ROTATIONAL SYMMETRY NUMBER IS  1.0
 THE ROTATIONAL CONSTANTS ARE (IN GHZ)
     47.91079     4.62200     4.21535
      7 -     24 VIBRATIONAL MODES ARE USED IN THERMOCHEMISTRY.
 THE HARMONIC ZERO POINT ENERGY IS (SCALED BY   1.000)
        0.061612 HARTREE/MOLECULE    13522.225995 CM**-1/MOLECULE 
       38.662023 KCAL/MOL              161.761904 KJ/MOL

               Q               LN Q
 ELEC.     1.00000E+00       0.000000
 TRANS.    1.64832E+07      16.617850
 ROT.      2.83673E+04      10.252993
 VIB.      2.61624E+00       0.961738
 TOT.      1.22331E+12      27.832582

              E         H         G         CV        CP        S
           KJ/MOL    KJ/MOL    KJ/MOL   J/MOL-K   J/MOL-K   J/MOL-K
 ELEC.      0.000     0.000     0.000     0.000     0.000     0.000
 TRANS.     3.718     6.197   -41.195    12.472    20.786   158.954
 ROT.       3.718     3.718   -25.417    12.472    12.472    97.719
 VIB.     165.758   165.758   159.378    32.416    32.416    21.401
 TOTAL    173.195   175.674    92.767    57.359    65.674   278.074
 VIB. THERMAL CORRECTION E(T)-E(0) = H(T)-H(0) =      3996.526 J/MOL

              E         H         G         CV        CP        S
         KCAL/MOL  KCAL/MOL  KCAL/MOL CAL/MOL-K CAL/MOL-K CAL/MOL-K
 ELEC.      0.000     0.000     0.000     0.000     0.000     0.000
 TRANS.     0.889     1.481    -9.846     2.981     4.968    37.991
 ROT.       0.889     0.889    -6.075     2.981     2.981    23.355
 VIB.      39.617    39.617    38.092     7.748     7.748     5.115
 TOTAL     41.395    41.987    22.172    13.709    15.696    66.461
 VIB. THERMAL CORRECTION E(T)-E(0) = H(T)-H(0) =       955.193 CAL/MOL
 ......END OF NORMAL COORDINATE ANALYSIS......
 STEP CPU TIME =     0.00 TOTAL CPU TIME =        796.9 (     13.3 MIN)
 TOTAL WALL CLOCK TIME=        834.2 SECONDS, CPU UTILIZATION IS    95.53%
               1080583  WORDS OF DYNAMIC MEMORY USED
 EXECUTION OF GAMESS TERMINATED NORMALLY Tue Oct  4 21:30:43 2022
 DDI: 263640 bytes (0.3 MB / 0 MWords) used by master data server.

 ----------------------------------------
 CPU timing information for all processes
 ========================================
 0: 792.478 + 4.459 = 796.937
 ----------------------------------------
 ddikick.x: exited gracefully.
----- accounting info -----
Files used on the master node chemcompute-node-0.novalocal were:
-rw-r--r--. 1 chemcomp chemcomp     1031 Oct  4 21:16 /scratch/120803/460760.F05
-rw-rw-r--. 1 chemcomp chemcomp 65536000 Oct  4 21:30 /scratch/120803/460760.F10
-rw-rw-r--. 1 chemcomp chemcomp  4143136 Oct  4 21:30 /scratch/120803/460760.F22
Tue Oct  4 21:30:47 UTC 2022
0.096u 0.040s 13:57.60 0.0%	0+0k 8+208io 0pf+0w
Finishing Up...
Looking for IR data...
Looking for Raman data...
vibramans not found
Looking for thermodynamics data...
Looking for UV-Vis data...
chemcompute.org
{'UTCtimestamp': '2022-10-04T21:30:48.932515', 'cluster': 'jetstream2', 'clusterJobNumber': '120803', 'status': 'COMPLETE', 'nodeList': 'chemcompute-node-0'}
120803
