chemcompute.org
{'UTCtimestamp': '2022-10-04T20:46:09.830003', 'cluster': 'jetstream2', 'clusterJobNumber': '120781', 'status': 'RUNNING', 'nodeList': 'chemcompute-node-1'}
----- GAMESS execution script 'rungms' -----
This job is running on host chemcompute-node-1.novalocal
under operating system Linux at Tue Oct 4 20:46:14 UTC 2022
SLURM has assigned the following compute nodes to this run:
Available scratch disk space (Kbyte units) at beginning of the job is
Filesystem     1K-blocks     Used Available Use% Mounted on
/dev/sda1       62903276 11198732  51704544  18% /
GAMESS temporary binary files will be written to /scratch/120781
GAMESS supplementary output files will be written to /data/slurm/46/460734
Copying input file 460734.inp to your run's scratch directory...
The generated host list is
chemcompute-node-1.novalocal

 Distributed Data Interface kickoff program.
 Initiating 1 compute processes on 1 nodes to run the following command:
 /data/gamess-2019R1-avx2-ddi/gamess.00.x 460734 

          ******************************************************
          *         GAMESS VERSION = 30 JUN 2019 (R1)          *
          *             FROM IOWA STATE UNIVERSITY             *
          * M.W.SCHMIDT, K.K.BALDRIDGE, J.A.BOATZ, S.T.ELBERT, *
          *   M.S.GORDON, J.H.JENSEN, S.KOSEKI, N.MATSUNAGA,   *
          *          K.A.NGUYEN, S.J.SU, T.L.WINDUS,           *
          *       TOGETHER WITH M.DUPUIS, J.A.MONTGOMERY       *
          *         J.COMPUT.CHEM.  14, 1347-1363(1993)        *
          **************** 64 BIT INTEL VERSION ****************

  SINCE 1993, STUDENTS AND POSTDOCS WORKING AT IOWA STATE UNIVERSITY
  AND ALSO IN THEIR VARIOUS JOBS AFTER LEAVING ISU HAVE MADE IMPORTANT
  CONTRIBUTIONS TO THE CODE:
     IVANA ADAMOVIC, CHRISTINE AIKENS, YURI ALEXEEV, POOJA ARORA,
     ANDREY ASADCHEV, ROB BELL, PRADIPTA BANDYOPADHYAY, JONATHAN BENTZ,
     COLLEEN BERTONI, BRETT BODE, KURT BRORSEN, CALEB CARLIN, GALINA CHABAN,
     WEI CHEN, CHEOL HO CHOI, PAUL DAY, ALBERT DEFUSCO, NUWAN DESILVA,
     TIM DUDLEY, DMITRI FEDOROV, ALEX FINDLATER, GRAHAM FLETCHER, 
     MARK FREITAG, KURT GLAESEMANN, ANASTASIA GUNINA,
     DAN KEMP, GRANT MERRILL, NORIYUKI MINEZAWA, JONATHAN MULLIN,
     TAKESHI NAGATA, SEAN NEDD, HEATHER NETZLOFF, BOSILJKA NJEGIC, RYAN OLSON,
     MIKE PAK, BUU PHAM,
     SPENCER PRUITT, LUKE ROSKOP, JIM SHOEMAKER, LYUDMILA SLIPCHENKO,
     TONY SMITH, SAROM SOK LEANG, JIE SONG, TETSUYA TAKETSUGU, SIMON WEBB,
     PENG XU, SOOHAENG YOO, FEDERICO ZAHARIEV

  ADDITIONAL CODE HAS BEEN PROVIDED BY COLLABORATORS IN OTHER GROUPS:
     IOWA STATE UNIVERSITY:
          JOE IVANIC, AARON WEST, LAIMUTIS BYTAUTAS, KLAUS RUEDENBERG
     UNIVERSITY OF TOKYO: KIMIHIKO HIRAO, TAKAHITO NAKAJIMA,
          TAKAO TSUNEDA, MUNEAKI KAMIYA, SUSUMU YANAGISAWA,
          KIYOSHI YAGI, MAHITO CHIBA, SEIKEN TOKURA, NAOAKI KAWAKAMI
     UNIVERSITY OF AARHUS: FRANK JENSEN
     UNIVERSITY OF IOWA: VISVALDAS KAIRYS, HUI LI
     NATIONAL INST. OF STANDARDS AND TECHNOLOGY: WALT STEVENS, DAVID GARMER
     UNIVERSITY OF PISA: BENEDETTA MENNUCCI, JACOPO TOMASI
     UNIVERSITY OF MEMPHIS: HENRY KURTZ, PRAKASHAN KORAMBATH
     UNIVERSITY OF ALBERTA: TOBY ZENG, MARIUSZ KLOBUKOWSKI
     UNIVERSITY OF NEW ENGLAND: MARK SPACKMAN
     MIE UNIVERSITY: HIROAKI UMEDA
     NAT. INST. OF ADVANCED INDUSTRIAL SCIENCE AND TECHNOLOGY: KAZUO KITAURA
     MICHIGAN STATE UNIVERSITY:
          KAROL KOWALSKI, MARTA WLOCH, JEFFREY GOUR, JESSE LUTZ,
          WEI LI, JUN SHEN, J. EMILIANO DEUSTUA, PIOTR PIECUCH
     UNIVERSITY OF MINNESOTA:
          YINAN SHU
     UNIVERSITY OF SILESIA: MONIKA MUSIAL, STANISLAW KUCHARSKI
     FACULTES UNIVERSITAIRES NOTRE-DAME DE LA PAIX:
          OLIVIER QUINET, BENOIT CHAMPAGNE
     UNIVERSITY OF CALIFORNIA - SANTA BARBARA: BERNARD KIRTMAN
     INSTITUTE FOR MOLECULAR SCIENCE:
          KAZUYA ISHIMURA, MICHIO KATOUDA, AND SHIGERU NAGASE
     UNIVERSITY OF NOTRE DAME: ANNA POMOGAEVA, DAN CHIPMAN
     KYUSHU UNIVERSITY:
          HARUYUKI NAKANO,
          FENG LONG GU, JACEK KORCHOWIEC, MARCIN MAKOWSKI, AND YURIKO AOKI,
          HIROTOSHI MORI AND EISAKU MIYOSHI
     PENNSYLVANIA STATE UNIVERSITY:
          TZVETELIN IORDANOV, CHET SWALINA, JONATHAN SKONE,
          SHARON HAMMES-SCHIFFER
     WASEDA UNIVERSITY:
          MASATO KOBAYASHI, TOMOKO AKAMA, TSUGUKI TOUMA,
          TAKESHI YOSHIKAWA, YASUHIRO IKABATA, JUNJI SEINO,
          YUYA NAKAJIMA, HIROMI NAKAI
     NANJING UNIVERSITY: SHUHUA LI
     UNIVERSITY OF NEBRASKA:
          PEIFENG SU, DEJUN SI, NANDUN THELLAMUREGE, YALI WANG, HUI LI
     UNIVERSITY OF ZURICH: ROBERTO PEVERATI, KIM BALDRIDGE
     N. COPERNICUS UNIVERSITY AND JACKSON STATE UNIVERSITY:
          MARIA BARYSZ
     UNIVERSITY OF COPENHAGEN: Jimmy Kromann, CASPER STEINMANN
     TOKYO INSTITUTE OF TECHNOLOGY: HIROYA NAKATA
     NAGOYA UNIVERSITY: YOSHIO NISHIMOTO, STEPHAN IRLE
     MOSCOW STATE UNIVERSITY: VLADIMIR MIRONOV
     A.N.NESMEYANOV INSTITUTE OF ORGANOELEMENT COMPOUNDS OF RUSSIAN ACADEMY OF SCIENCES:
          IGOR S. GERASIMOV

 EXECUTION OF GAMESS BEGUN Tue Oct  4 20:46:14 2022

            ECHO OF THE FIRST FEW INPUT CARDS -
 INPUT CARD>!                                                                               
 INPUT CARD>!   GAMESS Calculation input file                                               
 INPUT CARD>!   molecula de prueba JAAM                                                     
 INPUT CARD>!                                                                               
 INPUT CARD> $CONTRL SCFTYP=RHF MAXIT=200 RUNTYP=OPTIMIZE                                   
 INPUT CARD>         COORD=UNIQUE MULT=1                                                    
 INPUT CARD>         ICHARG=0                                                               
 INPUT CARD>         DFTTYP=B3LYP                                                           
 INPUT CARD>         MOLPLT=.FALSE. PLTORB=.FALSE.  $END                                    
 INPUT CARD> $SYSTEM TIMLIM=2879 MWORDS=250  $END                                           
 INPUT CARD>                                                                                
 INPUT CARD> $FORCE METHOD=SEMINUM NVIB=2 $END                                              
 INPUT CARD> $STATPT OPTTOL=0.0005 NSTEP=999 $END                                           
 INPUT CARD> $STATPT IHREP=0 HSSEND=.TRUE.  $END                                            
 INPUT CARD>                                                                                
 INPUT CARD> $DFT    METHOD=GRID  NLEB=590  $END                                            
 INPUT CARD>                                                                                
 INPUT CARD> $BASIS  GBASIS=N31 NGAUSS=6                                                    
 INPUT CARD>         NDFUNC=1   NPFUNC=0  $END                                              
 INPUT CARD>                                                                                
 INPUT CARD> $SCF    DIRSCF=.T. $END                                                        
 INPUT CARD> $GUESS  GUESS=HUCKEL  $END                                                     
 INPUT CARD>                                                                                
 INPUT CARD> $DATA                                                                          
 INPUT CARD>   molecula de prueba JAAM                                                      
 INPUT CARD>  Cs                                                                            
 INPUT CARD>                                                                                
 INPUT CARD>C     6.0     0.78     1.00     0.00                                            
 INPUT CARD>C     6.0    -0.36     0.30    -0.00                                            
 INPUT CARD>C     6.0    -0.41    -1.19    -0.00                                            
 INPUT CARD>H     1.0     1.74     0.51     0.00                                            
 INPUT CARD>H     1.0     0.77     2.08     0.00                                            
 INPUT CARD>H     1.0    -1.31     0.83    -0.00                                            
 INPUT CARD>H     1.0     0.08    -1.60     0.89                                            
 INPUT CARD>H     1.0    -1.44    -1.54    -0.00                                            
 INPUT CARD> $END                                                                           
 INPUT CARD>                                                                                
 INPUT CARD>                                                                                
 INPUT CARD>! Customizations after this line are persisted when using Do More Calculations  
  250000000 WORDS OF MEMORY AVAILABLE

     BASIS OPTIONS
     -------------
     GBASIS=N31          IGAUSS=       6      POLAR=POPN31  
     NDFUNC=       1     NFFUNC=       0     DIFFSP=       F
     NPFUNC=       0      DIFFS=       F     BASNAM=        


     RUN TITLE
     ---------
    molecula de prueba JAAM                                                      

 THE POINT GROUP OF THE MOLECULE IS CS      
 THE ORDER OF THE PRINCIPAL AXIS IS     0

 ATOM      ATOMIC                      COORDINATES (BOHR)
           CHARGE         X                   Y                   Z
 C           6.0     1.4739862704        1.8897259877        0.0000000000
 C           6.0    -0.6803013556        0.5669177963        0.0000000000
 C           6.0    -0.7747876550       -2.2487739254        0.0000000000
 H           1.0     3.2881232186        0.9637602537        0.0000000000
 H           1.0     1.4550890105        3.9306300545        0.0000000000
 H           1.0    -2.4755410439        1.5684725698        0.0000000000
 H           1.0     0.1511780790       -3.0235615804       -1.6818561291
 H           1.0     0.1511780790       -3.0235615804        1.6818561291
 H           1.0    -2.7212054223       -2.9101780211        0.0000000000

          INTERNUCLEAR DISTANCES (ANGS.)
          ------------------------------

                1 C          2 C          3 C          4 H          5 H     

   1 C       0.0000000    1.3377593 *  2.4924285 *  1.0778219 *  1.0800463 *
   2 C       1.3377593 *  0.0000000    1.4908387 *  2.1104739 *  2.1083880 *
   3 C       2.4924285 *  1.4908387 *  0.0000000    2.7408940 *  3.4763918  
   4 H       1.0778219 *  2.1104739 *  2.7408940 *  0.0000000    1.8454810 *
   5 H       1.0800463 *  2.1083880 *  3.4763918    1.8454810 *  0.0000000  
   6 H       2.0969025 *  1.0878419 *  2.2114249 *  3.0667409    2.4267056 *
   7 H       2.8358597 *  2.1437584 *  1.0955820 *  2.8283918 *  3.8484542  
   8 H       2.8358597 *  2.1437584 *  1.0955820 *  2.8283918 *  3.8484542  
   9 H       3.3734256    2.1335417 *  1.0878419 *  3.7835037    4.2412852  

                6 H          7 H          8 H          9 H     

   1 C       2.0969025 *  2.8358597 *  2.8358597 *  3.3734256  
   2 C       1.0878419 *  2.1437584 *  2.1437584 *  2.1335417 *
   3 C       2.2114249 *  1.0955820 *  1.0955820 *  1.0878419 *
   4 H       3.0667409    2.8283918 *  2.8283918 *  3.7835037  
   5 H       2.4267056 *  3.8484542    3.8484542    4.2412852  
   6 H       0.0000000    2.9375330 *  2.9375330 *  2.3735627 *
   7 H       2.9375330 *  0.0000000    1.7800000 *  1.7624131 *
   8 H       2.9375330 *  1.7800000 *  0.0000000    1.7624131 *
   9 H       2.3735627 *  1.7624131 *  1.7624131 *  0.0000000  

  * ... LESS THAN  3.000


     ATOMIC BASIS SET
     ----------------
 THE CONTRACTED PRIMITIVE FUNCTIONS HAVE BEEN UNNORMALIZED
 THE CONTRACTED BASIS FUNCTIONS ARE NOW NORMALIZED TO UNITY

  SHELL TYPE  PRIMITIVE        EXPONENT          CONTRACTION COEFFICIENT(S)

 C         

      1   S       1          3047.5248800    0.001834737132
      1   S       2           457.3695180    0.014037322813
      1   S       3           103.9486850    0.068842622264
      1   S       4            29.2101553    0.232184443216
      1   S       5             9.2866630    0.467941348435
      1   S       6             3.1639270    0.362311985337

      2   L       7             7.8682723   -0.119332419775    0.068999066591
      2   L       8             1.8812885   -0.160854151696    0.316423960957
      2   L       9             0.5442493    1.143456437840    0.744308290898

      3   L      10             0.1687145    1.000000000000    1.000000000000

      4   D      11             0.8000000    1.000000000000

 C         

      5   S      12          3047.5248800    0.001834737132
      5   S      13           457.3695180    0.014037322813
      5   S      14           103.9486850    0.068842622264
      5   S      15            29.2101553    0.232184443216
      5   S      16             9.2866630    0.467941348435
      5   S      17             3.1639270    0.362311985337

      6   L      18             7.8682723   -0.119332419775    0.068999066591
      6   L      19             1.8812885   -0.160854151696    0.316423960957
      6   L      20             0.5442493    1.143456437840    0.744308290898

      7   L      21             0.1687145    1.000000000000    1.000000000000

      8   D      22             0.8000000    1.000000000000

 C         

      9   S      23          3047.5248800    0.001834737132
      9   S      24           457.3695180    0.014037322813
      9   S      25           103.9486850    0.068842622264
      9   S      26            29.2101553    0.232184443216
      9   S      27             9.2866630    0.467941348435
      9   S      28             3.1639270    0.362311985337

     10   L      29             7.8682723   -0.119332419775    0.068999066591
     10   L      30             1.8812885   -0.160854151696    0.316423960957
     10   L      31             0.5442493    1.143456437840    0.744308290898

     11   L      32             0.1687145    1.000000000000    1.000000000000

     12   D      33             0.8000000    1.000000000000

 H         

     13   S      34            18.7311370    0.033494604338
     13   S      35             2.8253944    0.234726953484
     13   S      36             0.6401217    0.813757326146

     14   S      37             0.1612778    1.000000000000

 H         

     15   S      38            18.7311370    0.033494604338
     15   S      39             2.8253944    0.234726953484
     15   S      40             0.6401217    0.813757326146

     16   S      41             0.1612778    1.000000000000

 H         

     17   S      42            18.7311370    0.033494604338
     17   S      43             2.8253944    0.234726953484
     17   S      44             0.6401217    0.813757326146

     18   S      45             0.1612778    1.000000000000

 H         

     21   S      46            18.7311370    0.033494604338
     21   S      47             2.8253944    0.234726953484
     21   S      48             0.6401217    0.813757326146

     22   S      49             0.1612778    1.000000000000

 H         

     23   S      50            18.7311370    0.033494604338
     23   S      51             2.8253944    0.234726953484
     23   S      52             0.6401217    0.813757326146

     24   S      53             0.1612778    1.000000000000

 TOTAL NUMBER OF BASIS SET SHELLS             =   24
 NUMBER OF CARTESIAN GAUSSIAN BASIS FUNCTIONS =   57
 NUMBER OF ELECTRONS                          =   24
 CHARGE OF MOLECULE                           =    0
 SPIN MULTIPLICITY                            =    1
 NUMBER OF OCCUPIED ORBITALS (ALPHA)          =   12
 NUMBER OF OCCUPIED ORBITALS (BETA )          =   12
 TOTAL NUMBER OF ATOMS                        =    9
 THE NUCLEAR REPULSION ENERGY IS       70.9161232826

 SELECTED MURRAY-HANDY-LAMING RADIAL GRID

 LEGACY BECKE'S FUZZY CELL METHOD

 SELECTED ORIGINAL BECKE'S PARTITION FUNCTION

     LEBEDEV GRID-BASED DFT OPTIONS
     ------------------------------
     DFTTYP=B3LYP   
     NRAD  =      96     NLEB  =     590
     NRAD0 =      24     NLEB0 =     110
     SWOFF =    5.00E-03 (PURE SCF -> DFT)
     SWITCH=    3.00E-04 (COARSE -> TIGHT GRID)
     THRESH=    0.00E+00 GTHRE=    1.00E+00

 GRIMME'S EMPIRICAL DISPERSION CORRECTION= F

     $CONTRL OPTIONS
     ---------------
 SCFTYP=RHF          RUNTYP=OPTIMIZE     EXETYP=RUN     
 MPLEVL=       0     CITYP =NONE         CCTYP =NONE         VBTYP =NONE    
 DFTTYP=B3LYP        TDDFT =NONE    
 MULT  =       1     ICHARG=       0     NZVAR =       0     COORD =UNIQUE  
 PP    =NONE         RELWFN=NONE         LOCAL =NONE         NUMGRD=       F
 ISPHER=      -1     NOSYM =       0     MAXIT =     200     UNITS =ANGS    
 PLTORB=       F     MOLPLT=       F     AIMPAC=       F     FRIEND=        
 NPRINT=       7     IREST =       0     GEOM  =INPUT   
 NORMF =       0     NORMP =       0     ITOL  =      20     ICUT  =       9
 INTTYP=BEST         GRDTYP=BEST         QMTTOL= 1.0E-06

     $SYSTEM OPTIONS
     ---------------
  REPLICATED MEMORY=   250000000 WORDS (ON EVERY NODE).
 DISTRIBUTED MEMDDI=           0 MILLION WORDS IN AGGREGATE,
 MEMDDI DISTRIBUTED OVER   1 PROCESSORS IS           0 WORDS/PROCESSOR.
 TOTAL MEMORY REQUESTED ON EACH PROCESSOR=   250000000 WORDS.
 TIMLIM=        2879.00 MINUTES, OR       2.0 DAYS.
 PARALL= F  BALTYP=  DLB     KDIAG=    0  COREFL= F
 MXSEQ2=     300 MXSEQ3=     150  mem10=         0

          ----------------
          PROPERTIES INPUT
          ----------------

     MOMENTS            FIELD           POTENTIAL          DENSITY
 IEMOM =       1   IEFLD =       0   IEPOT =       0   IEDEN =       0
 WHERE =COMASS     WHERE =NUCLEI     WHERE =NUCLEI     WHERE =NUCLEI  
 OUTPUT=BOTH       OUTPUT=BOTH       OUTPUT=BOTH       OUTPUT=BOTH    
 IEMINT=       0   IEFINT=       0                     IEDINT=       0
                                                       MORB  =       0
          EXTRAPOLATION IN EFFECT
          DIIS IN EFFECT
 ORBITAL PRINTING OPTION: NPREO=     1    57     2     1

     -------------------------------
     INTEGRAL TRANSFORMATION OPTIONS
     -------------------------------
     NWORD  =            0
     CUTOFF = 1.0E-09     MPTRAN =       0
     DIRTRF =       T     AOINTS =DUP     

          ----------------------
          INTEGRAL INPUT OPTIONS
          ----------------------
 NOPK  =       1 NORDER=       0 SCHWRZ=       T

     ------------------------------------------
     THE POINT GROUP IS CS , NAXIS= 0, ORDER= 2
     ------------------------------------------

     DIMENSIONS OF THE SYMMETRY SUBSPACES ARE
 A'  =   43     A'' =   14

 ..... DONE SETTING UP THE RUN .....
 STEP CPU TIME =     0.01 TOTAL CPU TIME =          0.0 (      0.0 MIN)
 TOTAL WALL CLOCK TIME=          0.0 SECONDS, CPU UTILIZATION IS    50.00%


          -----------------------------
          STATIONARY POINT LOCATION RUN
          -----------------------------

 OBTAINING INITIAL HESSIAN, HESS=GUESS   
 CARTESIAN COORDINATE OPTIMIZATION USING BADGER'S RULE FORCE CONSTANT GUESS

          PARAMETERS CONTROLLING GEOMETRY SEARCH ARE
          METHOD =QA                  UPHESS =BFGS    
          NNEG   =         0          NFRZ   =         0
          NSTEP  =       999          IFOLOW =         1
          HESS   =GUESS               RESTAR =         F
          IHREP  =         0          HSSEND =         T
          NPRT   =         0          NPUN   =         0
          OPTTOL = 5.000E-04          RMIN   = 1.500E-03
          RMAX   = 1.000E-01          RLIM   = 7.000E-02
          DXMAX  = 3.000E-01          PURIFY =         F
          MOVIE  =         F          TRUPD  =         T
          TRMAX  = 5.000E-01          TRMIN  = 5.000E-02
          ITBMAT =         5          STPT   =         F
          STSTEP = 1.000E-02          PROJCT=          T

 BEGINNING GEOMETRY SEARCH POINT NSERCH=   0 ...

 COORDINATES OF SYMMETRY UNIQUE ATOMS (ANGS)
   ATOM   CHARGE       X              Y              Z
 ------------------------------------------------------------
 C           6.0   0.7800000000   1.0000000000   0.0000000000
 C           6.0  -0.3600000000   0.3000000000   0.0000000000
 C           6.0  -0.4100000000  -1.1900000000   0.0000000000
 H           1.0   1.7400000000   0.5100000000   0.0000000000
 H           1.0   0.7700000000   2.0800000000   0.0000000000
 H           1.0  -1.3100000000   0.8300000000   0.0000000000
 H           1.0   0.0800000000  -1.6000000000   0.8900000000
 H           1.0  -1.4400000000  -1.5400000000   0.0000000000
 COORDINATES OF ALL ATOMS ARE (ANGS)
   ATOM   CHARGE       X              Y              Z
 ------------------------------------------------------------
 C           6.0   0.7800000000   1.0000000000   0.0000000000
 C           6.0  -0.3600000000   0.3000000000   0.0000000000
 C           6.0  -0.4100000000  -1.1900000000   0.0000000000
 H           1.0   1.7400000000   0.5100000000   0.0000000000
 H           1.0   0.7700000000   2.0800000000   0.0000000000
 H           1.0  -1.3100000000   0.8300000000   0.0000000000
 H           1.0   0.0800000000  -1.6000000000  -0.8900000000
 H           1.0   0.0800000000  -1.6000000000   0.8900000000
 H           1.0  -1.4400000000  -1.5400000000   0.0000000000

          ********************
          1 ELECTRON INTEGRALS
          ********************
 ...... END OF ONE-ELECTRON INTEGRALS ......
 STEP CPU TIME =     0.01 TOTAL CPU TIME =          0.0 (      0.0 MIN)
 TOTAL WALL CLOCK TIME=          0.0 SECONDS, CPU UTILIZATION IS    40.00%

          -------------
          GUESS OPTIONS
          -------------
          GUESS =HUCKEL            NORB  =       0          NORDER=       0
          MIX   =       F          PRTMO =       F          PUNMO =       F
          TOLZ  = 1.0E-08          TOLE  = 1.0E-05
          SYMDEN=       F          PURIFY=       F

 INITIAL GUESS ORBITALS GENERATED BY HUCKEL   ROUTINE.
 HUCKEL GUESS REQUIRES     32010 WORDS.

 SYMMETRIES FOR INITIAL GUESS ORBITALS FOLLOW.   BOTH SET(S).
    12 ORBITALS ARE OCCUPIED (    3 CORE ORBITALS).
     4=A'       5=A'       6=A'       7=A'       8=A''      9=A'      10=A'  
    11=A'      12=A''     13=A''     14=A'      15=A'      16=A''     17=A'  
    18=A'      19=A'      20=A'      21=A'      22=A'  
 ...... END OF INITIAL ORBITAL SELECTION ......
 STEP CPU TIME =     0.01 TOTAL CPU TIME =          0.0 (      0.0 MIN)
 TOTAL WALL CLOCK TIME=          0.1 SECONDS, CPU UTILIZATION IS    37.50%

                    ----------------------
                    AO INTEGRAL TECHNOLOGY
                    ----------------------
     S,P,L SHELL ROTATED AXIS INTEGRALS, REPROGRAMMED BY
        KAZUYA ISHIMURA (IMS) AND JOSE SIERRA (SYNSTAR).
     S,P,D,L SHELL ROTATED AXIS INTEGRALS PROGRAMMED BY
        KAZUYA ISHIMURA (INSTITUTE FOR MOLECULAR SCIENCE).
     S,P,D,F,G SHELL TO TOTAL QUARTET ANGULAR MOMENTUM SUM 5,
        ERIC PROGRAM BY GRAHAM FLETCHER (ELORET AND NASA ADVANCED
        SUPERCOMPUTING DIVISION, AMES RESEARCH CENTER).
     S,P,D,F,G,L SHELL GENERAL RYS QUADRATURE PROGRAMMED BY
        MICHEL DUPUIS (PACIFIC NORTHWEST NATIONAL LABORATORY).

          --------------------
          2 ELECTRON INTEGRALS
          --------------------

 DIRECT SCF METHOD SKIPS INTEGRAL STORAGE ON DISK.
 DIRECT TRANSFORMATION SKIPS AO INTEGRAL STORAGE ON DISK.
  ...... END OF TWO-ELECTRON INTEGRALS .....
 STEP CPU TIME =     0.01 TOTAL CPU TIME =          0.0 (      0.0 MIN)
 TOTAL WALL CLOCK TIME=          0.1 SECONDS, CPU UTILIZATION IS    40.00%

          --------------------------
             R-B3LYP SCF CALCULATION
          --------------------------

     NUCLEAR ENERGY =        70.9161232826
     MAXIT =  200     NPUNCH=    2
     EXTRAP=T  DAMP=F  SHIFT=F  RSTRCT=F  DIIS=T  DEM=F  SOSCF=F
         DENSITY MATRIX CONVERGENCE THRESHOLD=  2.00E-05
     COARSE -> FINE DFT GRID SWITCH THRESHOLD=  3.00E-04 (SWITCH IN $DFT)
                   HF -> DFT SWITCH THRESHOLD=  5.00E-03 (SWOFF IN $DFT)
     MEMORY REQUIRED FOR RHF ITERS=    668725 WORDS.

 DIRECT SCF CALCULATION, SCHWRZ=T   FDIFF=T,  DIRTHR=  0.00E+00 NITDIR=10
 SCHWARZ INEQUALITY OVERHEAD:      1653 INTEGRALS, T=        0.00

 DFT CODE IS SWITCHING FROM THE FINE GRID NRAD= 96,  NLEB=  590
                      TO THE COARSE GRID NRAD0= 24, NLEB0=  110

     EXCHANGE FUNCTIONAL   =B88&HFX   
     CORRELATION FUNCTIONAL=LYP88&VWN5
     DFT THRESHOLD         =.785E-08
     GRID CHANGE THRESHOLD =.300E-03
 FOR AN EULER-MACLAURIN QUADRATURE USING  96 RADIAL POINTS:
 SMALLEST GAUSSIAN PRIMITIVE EXPONENT=        0.1612777588 OF TYPE -S-
 ON ATOM NUMBER   4 HAS RADIAL NORMALIZATION=  1.000000
  LARGEST GAUSSIAN PRIMITIVE EXPONENT=     3047.5248800000 OF TYPE -S-
 ON ATOM NUMBER   1 HAS RADIAL NORMALIZATION=  1.000000
 DFT IS SWITCHED OFF, PERFORMING PURE SCF UNTIL SWOFF THRESHOLD IS REACHED.

                                                                                   NONZERO     BLOCKS
 ITER EX DEM     TOTAL ENERGY        E CHANGE  DENSITY CHANGE    DIIS ERROR      INTEGRALS    SKIPPED
          * * *   INITIATING DIIS PROCEDURE   * * *
   1  0  0     -116.7940051370  -116.7940051370   0.129950572   0.393440595         720057       1239
   2  1  0     -117.0491961211    -0.2551909840   0.082561046   0.073906458         719606       1439
   3  2  0     -117.0636332276    -0.0144371066   0.021142298   0.025721426         718775       1708
   4  3  0     -117.0668131890    -0.0031799613   0.007241693   0.005758591         716730       2066
   5  4  0     -117.0670058614    -0.0001926724   0.003272993   0.001985997         714562       2318
 CONVERGED TO SWOFF, SO DFT CALCULATION IS NOW SWITCHED ON.
          * * *   INITIATING DIIS PROCEDURE   * * *
   6  5  0     -117.8016716768    -0.7346658154   0.053973589   0.075019603         720064       1234
   7  6  0     -117.8127512995    -0.0110796227   0.030197800   0.026489129         719023       1651
   8  7  0     -117.8130831976    -0.0003318981   0.016170493   0.025115128         717485       1859
   9  8  0     -117.8147792272    -0.0016960296   0.004427252   0.003801692         716109       2083
  10  9  0     -117.8148225347    -0.0000433074   0.000797140   0.000599878         709358       2981
  11 10  0     -117.8148242985    -0.0000017638   0.000133215   0.000098492         704230       3589
 DFT CODE IS SWITCHING BACK TO THE FINE GRID
          * * *   INITIATING DIIS PROCEDURE   * * *
  12 11  0     -117.8161014476    -0.0012771491   0.001158925   0.000593535         720090       1217
  13 12  0     -117.8161039212    -0.0000024736   0.000102507   0.000143391         709912       2979
  14 13  0     -117.8161039425    -0.0000000213   0.000102754   0.000086638         697796       4287
  15 14  0     -117.8161039556    -0.0000000131   0.000048618   0.000035609         687303       5111
  16 15  0     -117.8161039607    -0.0000000051   0.000010828   0.000009393         676054       6163
  17 16  0     -117.8161039612    -0.0000000005   0.000001401   0.000001688         664683       7124

          -----------------
          DENSITY CONVERGED
          -----------------
     TIME TO FORM FOCK OPERATORS=       6.3 SECONDS (       0.4 SEC/ITER)
     FOCK TIME ON FIRST ITERATION=       0.1, LAST ITERATION=       0.9
     TIME TO SOLVE SCF EQUATIONS=       0.1 SECONDS (       0.0 SEC/ITER)

 FINAL R-B3LYP ENERGY IS     -117.8161039612 AFTER  17 ITERATIONS
 DFT EXCHANGE + CORRELATION ENERGY =       -14.8779812135
 TOTAL ELECTRON NUMBER             =        23.9999927553

          ------------
          EIGENVECTORS
          ------------

                      1          2          3          4          5
                  -10.1808   -10.1729   -10.1659    -0.7773    -0.6759
                     A'         A'         A'         A'         A'  
    1  C  1  S    0.028075  -0.001369   0.992300  -0.113728   0.137743
    2  C  1  S    0.000839  -0.000235   0.049370   0.216762  -0.268134
    3  C  1  X    0.000310   0.000004   0.000025  -0.069184   0.033002
    4  C  1  Y    0.000215   0.000096  -0.000009  -0.052784  -0.003351
    5  C  1  Z    0.000000   0.000000   0.000000   0.000000   0.000000
    6  C  1  S    0.004575   0.000528  -0.013426   0.165539  -0.221346
    7  C  1  X   -0.001271  -0.000583   0.000936  -0.006401  -0.007667
    8  C  1  Y   -0.001639  -0.000384   0.000615  -0.009040  -0.007392
    9  C  1  Z    0.000000   0.000000   0.000000   0.000000   0.000000
   10  C  1 XX   -0.000572   0.000116  -0.009297   0.004752  -0.003348
   11  C  1 YY   -0.000464   0.000045  -0.009405   0.002276  -0.002241
   12  C  1 ZZ   -0.000405  -0.000088  -0.009804  -0.012182   0.013683
   13  C  1 XY   -0.000035   0.000027   0.000114   0.004473   0.001702
   14  C  1 XZ    0.000000   0.000000   0.000000   0.000000   0.000000
   15  C  1 YZ    0.000000   0.000000   0.000000   0.000000   0.000000
   16  C  2  S    0.992225  -0.017442  -0.028579  -0.153644   0.034005
   17  C  2  S    0.049250  -0.001053  -0.001931   0.298325  -0.068112
   18  C  2  X    0.000006  -0.000013  -0.000362   0.051727  -0.100050
   19  C  2  Y   -0.000179   0.000205  -0.000191  -0.017496  -0.166060
   20  C  2  Z    0.000000   0.000000   0.000000   0.000000   0.000000
   21  C  2  S   -0.014629   0.004108   0.004925   0.196723  -0.052048
   22  C  2  X   -0.001228  -0.000578   0.001818  -0.010648  -0.015925
   23  C  2  Y    0.000938  -0.002630   0.001172  -0.001353  -0.040377
   24  C  2  Z    0.000000   0.000000   0.000000   0.000000   0.000000
   25  C  2 XX   -0.009131   0.000035   0.000003   0.002034  -0.008495
   26  C  2 YY   -0.009240  -0.000275  -0.000002   0.003954   0.012368
   27  C  2 ZZ   -0.009566   0.000027   0.000145  -0.015749   0.003005
   28  C  2 XY    0.000150  -0.000065  -0.000042   0.001948  -0.004949
   29  C  2 XZ    0.000000   0.000000   0.000000   0.000000   0.000000
   30  C  2 YZ    0.000000   0.000000   0.000000   0.000000   0.000000
   31  C  3  S    0.017251   0.992738   0.000849  -0.118871  -0.147346
   32  C  3  S    0.000705   0.050134  -0.000064   0.223958   0.288330
   33  C  3  X    0.000085   0.000002  -0.000036   0.006755  -0.018780
   34  C  3  Y   -0.000300   0.000084  -0.000037   0.061508  -0.032607
   35  C  3  Z    0.000000   0.000000   0.000000   0.000000   0.000000
   36  C  3  S    0.003323  -0.017414  -0.000148   0.193665   0.264761
   37  C  3  X   -0.000094   0.000059   0.000045   0.009286  -0.010393
   38  C  3  Y    0.001951  -0.001138   0.000175   0.011199  -0.019532
   39  C  3  Z    0.000000   0.000000   0.000000   0.000000   0.000000
   40  C  3 XX   -0.000275  -0.009167   0.000010  -0.001935   0.003032
   41  C  3 YY   -0.000654  -0.009221   0.000087   0.005961  -0.007312
   42  C  3 ZZ   -0.000192  -0.009163  -0.000037  -0.002053   0.002481
   43  C  3 XY    0.000058   0.000009   0.000017   0.001296  -0.001894
   44  C  3 XZ    0.000000   0.000000   0.000000   0.000000   0.000000
   45  C  3 YZ    0.000000   0.000000   0.000000   0.000000   0.000000
   46  H  4  S   -0.000135  -0.000080  -0.000342   0.058169  -0.086047
   47  H  4  S   -0.000350   0.000241   0.002223   0.010054  -0.021304
   48  H  5  S   -0.000036  -0.000015  -0.000342   0.053100  -0.099195
   49  H  5  S    0.000245   0.000348   0.002188   0.009807  -0.030592
   50  H  6  S   -0.000349  -0.000128  -0.000052   0.076330  -0.020851
   51  H  6  S    0.001876  -0.000087  -0.000053   0.009973  -0.003591
   52  H  7  S   -0.000162  -0.000037  -0.000026   0.064552   0.103260
   53  H  7  S    0.000416   0.002691   0.000069   0.009019   0.029834
   54  H  8  S   -0.000162  -0.000037  -0.000026   0.064552   0.103260
   55  H  8  S    0.000416   0.002691   0.000069   0.009019   0.029834
   56  H  9  S   -0.000100  -0.000034   0.000011   0.063469   0.113402
   57  H  9  S   -0.000103   0.002740   0.000209   0.013913   0.032278

                      6          7          8          9         10
                   -0.5465    -0.4581    -0.4139    -0.4086    -0.3612
                     A'         A'         A'         A''        A'  
    1  C  1  S    0.090505  -0.016408   0.001305   0.000000   0.027033
    2  C  1  S   -0.182150   0.034646  -0.003751   0.000000  -0.056823
    3  C  1  X   -0.189800   0.019461   0.340116   0.000000   0.151517
    4  C  1  Y   -0.048550   0.320880  -0.063712   0.000000   0.241306
    5  C  1  Z    0.000000   0.000000   0.000000   0.066681   0.000000
    6  C  1  S   -0.172055   0.036108   0.024606   0.000000  -0.087889
    7  C  1  X   -0.066377   0.003421   0.122859   0.000000   0.065239
    8  C  1  Y   -0.021102   0.123592  -0.028399   0.000000   0.087122
    9  C  1  Z    0.000000   0.000000   0.000000   0.038054   0.000000
   10  C  1 XX    0.003810  -0.004702   0.008460   0.000000  -0.004942
   11  C  1 YY   -0.008283   0.009067  -0.000382   0.000000   0.014684
   12  C  1 ZZ    0.008200  -0.001274  -0.000343   0.000000   0.001576
   13  C  1 XY    0.011149  -0.005251  -0.012365   0.000000  -0.002955
   14  C  1 XZ    0.000000   0.000000   0.000000  -0.003832   0.000000
   15  C  1 YZ    0.000000   0.000000   0.000000  -0.003822   0.000000
   16  C  2  S   -0.122415   0.032262  -0.001181   0.000000  -0.001177
   17  C  2  S    0.251618  -0.071321   0.004621   0.000000   0.001705
   18  C  2  X   -0.156438  -0.240710  -0.184840   0.000000  -0.215552
   19  C  2  Y    0.047637   0.140330  -0.234032   0.000000  -0.167801
   20  C  2  Z    0.000000   0.000000   0.000000   0.149530   0.000000
   21  C  2  S    0.229140  -0.044778   0.014322   0.000000   0.029937
   22  C  2  X   -0.068297  -0.061632  -0.062665   0.000000  -0.060646
   23  C  2  Y    0.011114   0.042339  -0.086203   0.000000  -0.032985
   24  C  2  Z    0.000000   0.000000   0.000000   0.072510   0.000000
   25  C  2 XX    0.002236   0.003748   0.004455   0.000000  -0.006293
   26  C  2 YY   -0.005587   0.006698  -0.000567   0.000000   0.009609
   27  C  2 ZZ   -0.010444   0.001534  -0.000850   0.000000   0.000176
   28  C  2 XY   -0.010102   0.000819  -0.002992   0.000000  -0.016151
   29  C  2 XZ    0.000000   0.000000   0.000000   0.002605   0.000000
   30  C  2 YZ    0.000000   0.000000   0.000000  -0.009802   0.000000
   31  C  3  S    0.052061  -0.012339   0.006638   0.000000  -0.009410
   32  C  3  S   -0.103493   0.025621  -0.008968   0.000000   0.022000
   33  C  3  X   -0.048773  -0.199007  -0.200558   0.000000   0.330499
   34  C  3  Y    0.152455  -0.142590   0.216727   0.000000   0.158357
   35  C  3  Z    0.000000   0.000000   0.000000   0.430382   0.000000
   36  C  3  S   -0.117694   0.022639  -0.033055   0.000000   0.046434
   37  C  3  X   -0.019011  -0.099682  -0.090579   0.000000   0.147031
   38  C  3  Y    0.053423  -0.061712   0.097654   0.000000   0.081616
   39  C  3  Z    0.000000   0.000000   0.000000   0.200498   0.000000
   40  C  3 XX   -0.004126   0.011690   0.003388   0.000000  -0.019430
   41  C  3 YY    0.013458  -0.008307   0.006873   0.000000   0.005758
   42  C  3 ZZ   -0.007549  -0.001996  -0.014175   0.000000   0.009517
   43  C  3 XY   -0.001344  -0.001882   0.003099   0.000000  -0.017353
   44  C  3 XZ    0.000000   0.000000   0.000000   0.018446   0.000000
   45  C  3 YZ    0.000000   0.000000   0.000000  -0.010970   0.000000
   46  H  4  S   -0.152010  -0.052053   0.203085   0.000000  -0.008601
   47  H  4  S   -0.082352  -0.035159   0.159374   0.000000   0.004510
   48  H  5  S   -0.103633   0.196622  -0.038686   0.000000   0.138726
   49  H  5  S   -0.051216   0.138099  -0.031380   0.000000   0.143200
   50  H  6  S    0.182848   0.123394   0.035486   0.000000   0.077263
   51  H  6  S    0.091074   0.108026   0.034541   0.000000   0.071130
   52  H  7  S   -0.082585  -0.007995  -0.111634  -0.220051   0.073885
   53  H  7  S   -0.043043  -0.005019  -0.082751  -0.177722   0.067573
   54  H  8  S   -0.082585  -0.007995  -0.111634   0.220051   0.073885
   55  H  8  S   -0.043043  -0.005019  -0.082751   0.177722   0.067573
   56  H  9  S   -0.044537   0.146283   0.068093   0.000000  -0.245584
   57  H  9  S   -0.020263   0.098790   0.061098   0.000000  -0.232453

                     11         12         13         14         15
                   -0.3393    -0.2424     0.0237     0.1146     0.1348
                     A'         A''        A''        A'         A'  
    1  C  1  S   -0.008285   0.000000   0.000000  -0.049019   0.000142
    2  C  1  S    0.017916   0.000000   0.000000   0.096987   0.022687
    3  C  1  X   -0.163244   0.000000   0.000000   0.044364   0.067243
    4  C  1  Y    0.190598   0.000000   0.000000   0.110153  -0.110325
    5  C  1  Z    0.000000   0.403900   0.388645   0.000000   0.000000
    6  C  1  S    0.022140   0.000000   0.000000   0.551228  -0.097925
    7  C  1  X   -0.043650   0.000000   0.000000   0.337390   0.216046
    8  C  1  Y    0.064563   0.000000   0.000000   0.369690  -0.232983
    9  C  1  Z    0.000000   0.299225   0.593518   0.000000   0.000000
   10  C  1 XX   -0.020874   0.000000   0.000000   0.011841  -0.001138
   11  C  1 YY    0.019114   0.000000   0.000000  -0.018094   0.010507
   12  C  1 ZZ   -0.000521   0.000000   0.000000  -0.001013  -0.002420
   13  C  1 XY    0.013299   0.000000   0.000000  -0.002412  -0.001077
   14  C  1 XZ    0.000000  -0.012780   0.021025   0.000000   0.000000
   15  C  1 YZ    0.000000  -0.007283   0.011222   0.000000   0.000000
   16  C  2  S   -0.007301   0.000000   0.000000  -0.052349   0.042142
   17  C  2  S    0.023326   0.000000   0.000000   0.084756  -0.017465
   18  C  2  X    0.192484   0.000000   0.000000  -0.178519   0.123382
   19  C  2  Y   -0.262994   0.000000   0.000000   0.090050  -0.039573
   20  C  2  Z    0.000000   0.373261  -0.420682   0.000000   0.000000
   21  C  2  S    0.001829   0.000000   0.000000   0.961817  -0.708951
   22  C  2  X    0.075180   0.000000   0.000000  -0.283868   0.317091
   23  C  2  Y   -0.069691   0.000000   0.000000   0.337494   0.126896
   24  C  2  Z    0.000000   0.270337  -0.566158   0.000000   0.000000
   25  C  2 XX   -0.020524   0.000000   0.000000  -0.006427   0.013934
   26  C  2 YY    0.013550   0.000000   0.000000   0.005848   0.007789
   27  C  2 ZZ   -0.000086   0.000000   0.000000  -0.004693  -0.002695
   28  C  2 XY    0.019369   0.000000   0.000000   0.013937  -0.014406
   29  C  2 XZ    0.000000   0.013264   0.022728   0.000000   0.000000
   30  C  2 YZ    0.000000   0.013061   0.010623   0.000000   0.000000
   31  C  3  S   -0.022766   0.000000   0.000000  -0.079831  -0.116836
   32  C  3  S    0.048438   0.000000   0.000000   0.097754   0.125380
   33  C  3  X   -0.110777   0.000000   0.000000  -0.124106   0.158508
   34  C  3  Y    0.271987   0.000000   0.000000  -0.108238  -0.139970
   35  C  3  Z    0.000000  -0.127326  -0.036258   0.000000   0.000000
   36  C  3  S    0.114339   0.000000   0.000000   1.318625   2.028586
   37  C  3  X   -0.063644   0.000000   0.000000  -0.385589   0.442552
   38  C  3  Y    0.144649   0.000000   0.000000  -0.359874  -0.303662
   39  C  3  Z    0.000000  -0.075760  -0.192077   0.000000   0.000000
   40  C  3 XX   -0.002303   0.000000   0.000000  -0.018913  -0.002840
   41  C  3 YY    0.007263   0.000000   0.000000  -0.000035  -0.007058
   42  C  3 ZZ   -0.011507   0.000000   0.000000  -0.000473  -0.018513
   43  C  3 XY    0.009840   0.000000   0.000000  -0.012205   0.009224
   44  C  3 XZ    0.000000  -0.006236   0.010356   0.000000   0.000000
   45  C  3 YZ    0.000000   0.020167  -0.027176   0.000000   0.000000
   46  H  4  S   -0.171638   0.000000   0.000000   0.029814   0.006509
   47  H  4  S   -0.196428   0.000000   0.000000  -0.287119  -0.421125
   48  H  5  S    0.156935   0.000000   0.000000  -0.069088   0.011436
   49  H  5  S    0.158001   0.000000   0.000000  -0.850041   0.357970
   50  H  6  S   -0.214768   0.000000   0.000000  -0.041202   0.088899
   51  H  6  S   -0.224863   0.000000   0.000000  -1.023315   0.800314
   52  H  7  S   -0.087886   0.098351  -0.086253   0.018029  -0.048889
   53  H  7  S   -0.097678   0.106161  -0.365121  -0.363670  -1.230184
   54  H  8  S   -0.087886  -0.098351   0.086253   0.018029  -0.048889
   55  H  8  S   -0.097678  -0.106161   0.365121  -0.363670  -1.230184
   56  H  9  S    0.037234   0.000000   0.000000  -0.077393   0.034955
   57  H  9  S    0.018856   0.000000   0.000000  -1.199860  -0.221144

                     16         17         18         19         20
                    0.1575     0.1920     0.1956     0.2081     0.2943
                     A'         A'         A''        A'         A'  
    1  C  1  S   -0.116309   0.032351   0.000000   0.042648   0.032078
    2  C  1  S    0.162929  -0.035873   0.000000  -0.061535   0.001931
    3  C  1  X    0.234107   0.109345   0.000000   0.087975  -0.110827
    4  C  1  Y    0.001778  -0.324519   0.000000  -0.054438   0.140454
    5  C  1  Z    0.000000   0.000000   0.135674   0.000000   0.000000
    6  C  1  S    1.921364  -0.781451   0.000000  -0.418711  -0.976588
    7  C  1  X    0.577035   0.562530   0.000000   0.468951  -0.151328
    8  C  1  Y    0.009564  -0.922107   0.000000  -0.279285   1.628670
    9  C  1  Z    0.000000   0.000000   0.228402   0.000000   0.000000
   10  C  1 XX   -0.014399  -0.007602   0.000000   0.003016  -0.014169
   11  C  1 YY    0.000259   0.002984   0.000000   0.005640   0.008044
   12  C  1 ZZ   -0.007301   0.005463   0.000000   0.002135   0.007586
   13  C  1 XY    0.008634   0.004425   0.000000   0.012094   0.020821
   14  C  1 XZ    0.000000   0.000000   0.011695   0.000000   0.000000
   15  C  1 YZ    0.000000   0.000000   0.008033   0.000000   0.000000
   16  C  2  S    0.016268  -0.033258   0.000000  -0.115474  -0.071147
   17  C  2  S   -0.044648   0.032049   0.000000   0.176654   0.065348
   18  C  2  X    0.022649   0.026334   0.000000  -0.147461   0.207636
   19  C  2  Y   -0.118360  -0.104441   0.000000  -0.027367  -0.325416
   20  C  2  Z    0.000000   0.000000  -0.141861   0.000000   0.000000
   21  C  2  S   -0.068378   0.630187   0.000000   2.096614   2.055300
   22  C  2  X   -0.015744   0.171193   0.000000  -0.674139   1.334789
   23  C  2  Y   -0.510073   0.041900   0.000000  -0.060451  -1.830595
   24  C  2  Z    0.000000   0.000000  -0.474989   0.000000   0.000000
   25  C  2 XX    0.012163   0.015660   0.000000   0.009131  -0.003743
   26  C  2 YY   -0.015030  -0.024540   0.000000  -0.011223   0.008274
   27  C  2 ZZ    0.003178   0.001361   0.000000  -0.007676  -0.004896
   28  C  2 XY   -0.000576   0.002629   0.000000  -0.018380   0.012772
   29  C  2 XZ    0.000000   0.000000   0.000183   0.000000   0.000000
   30  C  2 YZ    0.000000   0.000000  -0.012603   0.000000   0.000000
   31  C  3  S    0.052582   0.019833   0.000000   0.057901   0.055260
   32  C  3  S   -0.050511  -0.051877   0.000000  -0.066470   0.025738
   33  C  3  X    0.081095  -0.250133   0.000000   0.244520  -0.030071
   34  C  3  Y   -0.007430  -0.140741   0.000000  -0.134802  -0.117446
   35  C  3  Z    0.000000   0.000000   0.435033   0.000000   0.000000
   36  C  3  S   -0.998952  -0.009031   0.000000  -0.884501  -1.683011
   37  C  3  X    0.055906  -0.898417   0.000000   0.940568  -0.504439
   38  C  3  Y   -0.151949  -0.380642   0.000000  -0.736495  -1.797689
   39  C  3  Z    0.000000   0.000000   1.409683   0.000000   0.000000
   40  C  3 XX   -0.001395  -0.011539   0.000000  -0.000234  -0.016812
   41  C  3 YY    0.005532   0.013873   0.000000   0.023254   0.036015
   42  C  3 ZZ    0.006808   0.000919   0.000000  -0.011100  -0.007217
   43  C  3 XY   -0.003735   0.002895   0.000000   0.002045   0.004956
   44  C  3 XZ    0.000000   0.000000  -0.012011   0.000000   0.000000
   45  C  3 YZ    0.000000   0.000000  -0.004919   0.000000   0.000000
   46  H  4  S   -0.098974  -0.020477   0.000000  -0.017131  -0.049231
   47  H  4  S   -1.685322  -0.835462   0.000000  -0.343888   1.198537
   48  H  5  S   -0.017535   0.044679   0.000000   0.041118   0.020365
   49  H  5  S   -0.800029   1.594611   0.000000   0.627824  -1.081094
   50  H  6  S    0.043457   0.011329   0.000000  -0.000672  -0.017141
   51  H  6  S    0.475220   0.015343   0.000000  -1.443353   1.394944
   52  H  7  S    0.027074   0.015601   0.058742  -0.046424  -0.057132
   53  H  7  S    0.241724   0.406747   1.518318  -0.484834  -0.019683
   54  H  8  S    0.027074   0.015601  -0.058742  -0.046424  -0.057132
   55  H  8  S    0.241724   0.406747  -1.518318  -0.484834  -0.019683
   56  H  9  S   -0.025914  -0.064436   0.000000   0.038686  -0.083866
   57  H  9  S    0.412301  -1.213720   0.000000   1.234082  -0.462598

                     21         22         23         24         25
                    0.3491     0.5045     0.5321     0.5549     0.5921
                     A'         A'         A'         A''        A'  
    1  C  1  S   -0.074095  -0.002253   0.018171   0.000000  -0.008392
    2  C  1  S    0.016685  -0.220504  -0.159606   0.000000   0.330827
    3  C  1  X   -0.122188   0.469970  -0.082153   0.000000  -0.321672
    4  C  1  Y    0.004281   0.276700   0.302556   0.000000  -0.072758
    5  C  1  Z    0.000000   0.000000   0.000000  -0.639099   0.000000
    6  C  1  S    3.161010  -0.541434   0.234246   0.000000   0.330688
    7  C  1  X   -2.595751  -0.226025   0.579494   0.000000   0.392771
    8  C  1  Y   -1.343942  -0.325118  -0.275630   0.000000  -0.305033
    9  C  1  Z    0.000000   0.000000   0.000000   0.627352   0.000000
   10  C  1 XX   -0.022698  -0.034770  -0.055717   0.000000   0.019130
   11  C  1 YY    0.032770   0.000293   0.055446   0.000000   0.040778
   12  C  1 ZZ   -0.011811  -0.004542  -0.007574   0.000000  -0.011868
   13  C  1 XY   -0.019266  -0.031487   0.068183   0.000000   0.011250
   14  C  1 XZ    0.000000   0.000000   0.000000   0.046580   0.000000
   15  C  1 YZ    0.000000   0.000000   0.000000   0.020057   0.000000
   16  C  2  S    0.050800  -0.022844  -0.033148   0.000000   0.072177
   17  C  2  S    0.014848  -0.060995   0.005455   0.000000   0.278021
   18  C  2  X   -0.222000  -0.230283   0.060937   0.000000   0.065986
   19  C  2  Y   -0.225728  -0.326795   0.160005   0.000000   0.275220
   20  C  2  Z    0.000000   0.000000   0.000000  -0.640920   0.000000
   21  C  2  S   -2.656659   0.179347  -0.052090   0.000000  -0.381144
   22  C  2  X   -2.449179   0.859139  -0.020946   0.000000  -0.669612
   23  C  2  Y   -1.911953   1.080579  -0.030343   0.000000  -0.497331
   24  C  2  Z    0.000000   0.000000   0.000000   0.349777   0.000000
   25  C  2 XX    0.013640  -0.047409   0.028668   0.000000   0.087343
   26  C  2 YY   -0.011979   0.028508  -0.101967   0.000000   0.126774
   27  C  2 ZZ    0.007419   0.009236   0.023830   0.000000  -0.072640
   28  C  2 XY    0.007189  -0.060951  -0.043338   0.000000   0.003975
   29  C  2 XZ    0.000000   0.000000   0.000000  -0.046133   0.000000
   30  C  2 YZ    0.000000   0.000000   0.000000  -0.026456   0.000000
   31  C  3  S    0.012864   0.009065   0.007449   0.000000  -0.020837
   32  C  3  S   -0.031350  -0.033903  -0.171941   0.000000   0.216630
   33  C  3  X   -0.100392  -0.278882  -0.307516   0.000000  -0.392536
   34  C  3  Y   -0.147873   0.205834  -0.609180   0.000000   0.661277
   35  C  3  Z    0.000000   0.000000   0.000000  -0.315079   0.000000
   36  C  3  S   -0.495442   0.566251   0.156222   0.000000  -0.278848
   37  C  3  X    0.697776   0.225663   0.512334   0.000000   0.962474
   38  C  3  Y   -0.815950  -0.140266   0.850810   0.000000  -0.818152
   39  C  3  Z    0.000000   0.000000   0.000000   0.757676   0.000000
   40  C  3 XX    0.007255   0.018088   0.048622   0.000000   0.060633
   41  C  3 YY    0.015852   0.051690  -0.039611   0.000000  -0.020024
   42  C  3 ZZ   -0.022124  -0.053619  -0.030184   0.000000  -0.036932
   43  C  3 XY   -0.020635   0.064061   0.042651   0.000000   0.001825
   44  C  3 XZ    0.000000   0.000000   0.000000  -0.052025   0.000000
   45  C  3 YZ    0.000000   0.000000   0.000000   0.020079   0.000000
   46  H  4  S    0.038002   0.033667  -0.353553   0.000000  -0.081417
   47  H  4  S    0.656227  -0.127503  -0.160843   0.000000  -0.288547
   48  H  5  S    0.144660   0.006488   0.231092   0.000000   0.115084
   49  H  5  S    0.246229   0.028638  -0.195170   0.000000   0.185313
   50  H  6  S   -0.018744   0.069793   0.186091   0.000000   0.387143
   51  H  6  S   -0.414263   0.024535  -0.112906   0.000000  -0.185438
   52  H  7  S   -0.051408  -0.197576  -0.052801   0.244659  -0.113948
   53  H  7  S   -0.355431   0.081196   0.034598   0.210558  -0.180230
   54  H  8  S   -0.051408  -0.197576  -0.052801  -0.244659  -0.113948
   55  H  8  S   -0.355431   0.081196   0.034598  -0.210558  -0.180230
   56  H  9  S   -0.032238   0.249882   0.302582   0.000000   0.151691
   57  H  9  S    0.018180  -0.142987  -0.018838   0.000000   0.200213

                     26         27         28         29         30
                    0.6201     0.6828     0.6837     0.7639     0.7850
                     A''        A''        A'         A'         A'  
    1  C  1  S    0.000000   0.000000  -0.088181  -0.021927  -0.020081
    2  C  1  S    0.000000   0.000000  -0.481084  -0.005161   0.384189
    3  C  1  X    0.000000   0.000000  -0.363195  -0.149255  -0.252853
    4  C  1  Y    0.000000   0.000000  -0.232836   0.107146  -0.330812
    5  C  1  Z    0.739910   0.428830   0.000000   0.000000   0.000000
    6  C  1  S    0.000000   0.000000   1.602639  -1.224380  -1.104693
    7  C  1  X    0.000000   0.000000   0.604008   0.224964   0.477543
    8  C  1  Y    0.000000   0.000000   0.298326   0.002676   0.601593
    9  C  1  Z   -0.779769  -0.913326   0.000000   0.000000   0.000000
   10  C  1 XX    0.000000   0.000000  -0.139946  -0.094820  -0.072418
   11  C  1 YY    0.000000   0.000000  -0.149417   0.015826   0.068022
   12  C  1 ZZ    0.000000   0.000000   0.096151   0.035317   0.019715
   13  C  1 XY    0.000000   0.000000  -0.008752  -0.052238  -0.045277
   14  C  1 XZ    0.005481  -0.000045   0.000000   0.000000   0.000000
   15  C  1 YZ   -0.016422   0.025154   0.000000   0.000000   0.000000
   16  C  2  S    0.000000   0.000000   0.040149   0.025498   0.035534
   17  C  2  S    0.000000   0.000000  -0.504882  -0.294386   0.628146
   18  C  2  X    0.000000   0.000000  -0.331597  -0.574775  -0.286643
   19  C  2  Y    0.000000   0.000000  -0.191623   0.250169  -0.749094
   20  C  2  Z   -0.148542  -0.858672   0.000000   0.000000   0.000000
   21  C  2  S    0.000000   0.000000   0.613685   0.710076  -1.353783
   22  C  2  X    0.000000   0.000000  -0.209805   2.303529   0.943771
   23  C  2  Y    0.000000   0.000000   0.040386  -0.642708   1.692653
   24  C  2  Z   -0.046291   1.631270   0.000000   0.000000   0.000000
   25  C  2 XX    0.000000   0.000000   0.011935   0.044819   0.181353
   26  C  2 YY    0.000000   0.000000  -0.017231   0.016595   0.004391
   27  C  2 ZZ    0.000000   0.000000  -0.023342  -0.045446  -0.038909
   28  C  2 XY    0.000000   0.000000   0.077514  -0.053814   0.018229
   29  C  2 XZ    0.025885  -0.004547   0.000000   0.000000   0.000000
   30  C  2 YZ    0.007989   0.046495   0.000000   0.000000   0.000000
   31  C  3  S    0.000000   0.000000  -0.009397  -0.021875   0.053321
   32  C  3  S    0.000000   0.000000   0.051059   0.106279  -0.047241
   33  C  3  X    0.000000   0.000000  -0.117504   0.662049  -0.009964
   34  C  3  Y    0.000000   0.000000   0.061140   0.153749  -0.266224
   35  C  3  Z   -0.598869   0.369077   0.000000   0.000000   0.000000
   36  C  3  S    0.000000   0.000000  -0.058442  -0.317699   0.614871
   37  C  3  X    0.000000   0.000000   0.486349  -2.162058  -0.152153
   38  C  3  Y    0.000000   0.000000  -0.253532  -0.514786   1.422190
   39  C  3  Z    1.321536  -1.314095   0.000000   0.000000   0.000000
   40  C  3 XX    0.000000   0.000000   0.025441  -0.035688  -0.035698
   41  C  3 YY    0.000000   0.000000   0.005935  -0.040530   0.085115
   42  C  3 ZZ    0.000000   0.000000  -0.023515   0.064121   0.007608
   43  C  3 XY    0.000000   0.000000  -0.034131   0.076764  -0.008201
   44  C  3 XZ   -0.087130   0.053609   0.000000   0.000000   0.000000
   45  C  3 YZ    0.018161  -0.039583   0.000000   0.000000   0.000000
   46  H  4  S    0.000000   0.000000  -0.539875  -0.161405  -0.019133
   47  H  4  S    0.000000   0.000000  -0.288707   0.232673   0.204651
   48  H  5  S    0.000000   0.000000  -0.586123   0.232941   0.081425
   49  H  5  S    0.000000   0.000000  -0.140571   0.052237  -0.396938
   50  H  6  S    0.000000   0.000000  -0.102862   0.413453   0.388240
   51  H  6  S    0.000000   0.000000  -0.155632   0.891342  -0.014603
   52  H  7  S    0.279781  -0.206113  -0.081109  -0.071016   0.313526
   53  H  7  S    0.270614  -0.302035  -0.168021   0.415145   0.240391
   54  H  8  S   -0.279781   0.206113  -0.081109  -0.071016   0.313526
   55  H  8  S   -0.270614   0.302035  -0.168021   0.415145   0.240391
   56  H  9  S    0.000000   0.000000  -0.009708  -0.097125   0.173779
   57  H  9  S    0.000000   0.000000   0.237329  -1.154029   0.330314

                     31         32         33         34         35
                    0.8717     0.8790     0.8907     0.9265     0.9520
                     A'         A''        A'         A'         A'  
    1  C  1  S    0.003519   0.000000   0.013187   0.009629   0.022446
    2  C  1  S   -0.112221   0.000000   0.110632  -0.330391  -0.916247
    3  C  1  X    0.649882   0.000000  -0.110101  -0.112948  -0.435340
    4  C  1  Y   -0.829221   0.000000   0.127031   0.345366  -0.296663
    5  C  1  Z    0.000000  -0.086638   0.000000   0.000000   0.000000
    6  C  1  S    0.183919   0.000000  -1.033180  -0.086919   1.778104
    7  C  1  X   -1.589432   0.000000   0.460838   0.837570   0.695932
    8  C  1  Y    2.256098   0.000000   0.321041  -1.032416   0.590138
    9  C  1  Z    0.000000   0.113555   0.000000   0.000000   0.000000
   10  C  1 XX   -0.091229   0.000000   0.034705  -0.072600  -0.059395
   11  C  1 YY    0.078884   0.000000  -0.023188   0.044621   0.023141
   12  C  1 ZZ    0.003890   0.000000  -0.004167  -0.009601  -0.096785
   13  C  1 XY    0.061835   0.000000  -0.057300  -0.001669  -0.096050
   14  C  1 XZ    0.000000  -0.012926   0.000000   0.000000   0.000000
   15  C  1 YZ    0.000000   0.008814   0.000000   0.000000   0.000000
   16  C  2  S   -0.011857   0.000000  -0.026936   0.004187  -0.018569
   17  C  2  S   -0.164387   0.000000   0.615014  -0.508185  -0.422019
   18  C  2  X   -0.088268   0.000000  -0.760018   0.300771  -0.091243
   19  C  2  Y    0.333631   0.000000   0.348550  -0.207102  -0.006956
   20  C  2  Z    0.000000   0.003074   0.000000   0.000000   0.000000
   21  C  2  S    0.499987   0.000000  -0.714707   1.055642   1.006602
   22  C  2  X    0.576597   0.000000   2.110353  -0.331140   0.058651
   23  C  2  Y   -1.599953   0.000000  -0.680572   1.321919  -0.164112
   24  C  2  Z    0.000000  -0.106639   0.000000   0.000000   0.000000
   25  C  2 XX    0.035024   0.000000  -0.028378  -0.018364  -0.026722
   26  C  2 YY   -0.060140   0.000000   0.062275  -0.020412  -0.054228
   27  C  2 ZZ    0.003498   0.000000   0.071687  -0.029535   0.022665
   28  C  2 XY   -0.044560   0.000000   0.126125  -0.042199   0.024265
   29  C  2 XZ    0.000000  -0.017196   0.000000   0.000000   0.000000
   30  C  2 YZ    0.000000   0.099800   0.000000   0.000000   0.000000
   31  C  3  S   -0.010257   0.000000   0.010661  -0.013424   0.024322
   32  C  3  S    0.090477   0.000000   0.031205  -0.177890  -0.678739
   33  C  3  X   -0.243768   0.000000  -0.423341  -0.484686   0.030752
   34  C  3  Y    0.097520   0.000000  -0.029795   0.131472   0.267609
   35  C  3  Z    0.000000  -0.845245   0.000000   0.000000   0.000000
   36  C  3  S   -0.983349   0.000000  -0.350590   1.073731   1.143953
   37  C  3  X    0.383733   0.000000   0.235110   0.412190   0.145349
   38  C  3  Y   -0.554617   0.000000  -0.089108   0.041306  -0.581769
   39  C  3  Z    0.000000   1.339060   0.000000   0.000000   0.000000
   40  C  3 XX   -0.015719   0.000000  -0.066114  -0.180788   0.039956
   41  C  3 YY   -0.059691   0.000000   0.008179  -0.001954  -0.096376
   42  C  3 ZZ    0.062715   0.000000   0.065695   0.155638  -0.036450
   43  C  3 XY   -0.035860   0.000000  -0.070376  -0.026612   0.000741
   44  C  3 XZ    0.000000   0.140192   0.000000   0.000000   0.000000
   45  C  3 YZ    0.000000  -0.150761   0.000000   0.000000   0.000000
   46  H  4  S   -0.454543   0.000000   0.124995   0.007316   0.510775
   47  H  4  S    1.862942   0.000000  -0.283941  -0.699516  -1.059218
   48  H  5  S    0.404351   0.000000   0.008827   0.136575   0.500531
   49  H  5  S   -1.778084   0.000000   0.046552   0.418445  -1.203708
   50  H  6  S    0.047067   0.000000  -0.584718   0.408868  -0.161344
   51  H  6  S    0.424957   0.000000   2.153708  -1.115706   0.092677
   52  H  7  S    0.111681  -0.700955   0.211977   0.332684   0.215668
   53  H  7  S   -0.273689   1.439494  -0.320219  -0.666102  -0.531323
   54  H  8  S    0.111681   0.700955   0.211977   0.332684   0.215668
   55  H  8  S   -0.273689  -1.439494  -0.320219  -0.666102  -0.531323
   56  H  9  S   -0.152264   0.000000  -0.323300  -0.788155   0.467076
   57  H  9  S    0.418373   0.000000   0.645160   0.925521  -0.661121

                     36         37         38         39         40
                    0.9681     1.1197     1.2458     1.3022     1.4303
                     A'         A'         A'         A'         A'' 
    1  C  1  S   -0.017997  -0.035536  -0.005328  -0.010450   0.000000
    2  C  1  S    0.428282  -1.500705  -0.291093  -0.290465   0.000000
    3  C  1  X    0.292496   0.200783  -0.024570  -0.016175   0.000000
    4  C  1  Y    0.315367   0.121893   0.174299  -0.122055   0.000000
    5  C  1  Z    0.000000   0.000000   0.000000   0.000000  -0.125214
    6  C  1  S   -0.666459   5.611101   0.908245   1.293112   0.000000
    7  C  1  X   -0.726556  -2.120415   1.342727   0.339172   0.000000
    8  C  1  Y   -0.631275  -0.502621  -2.796974  -0.495430   0.000000
    9  C  1  Z    0.000000   0.000000   0.000000   0.000000   0.060756
   10  C  1 XX    0.018746  -0.003349  -0.138825   0.025685   0.000000
   11  C  1 YY   -0.024706  -0.176881   0.107597   0.060386   0.000000
   12  C  1 ZZ    0.081469  -0.008162  -0.008138  -0.116906   0.000000
   13  C  1 XY    0.084813   0.076322   0.108760   0.033328   0.000000
   14  C  1 XZ    0.000000   0.000000   0.000000   0.000000  -0.393078
   15  C  1 YZ    0.000000   0.000000   0.000000   0.000000  -0.025084
   16  C  2  S   -0.014007   0.028926   0.009012   0.057329   0.000000
   17  C  2  S    0.118056   1.229111   0.476663   0.917060   0.000000
   18  C  2  X    0.065315   0.232364   0.181170   0.003736   0.000000
   19  C  2  Y    0.104393   0.225823  -0.267001  -0.056758   0.000000
   20  C  2  Z    0.000000   0.000000   0.000000   0.000000  -0.006088
   21  C  2  S   -0.521363  -4.731224  -1.424710  -4.325069   0.000000
   22  C  2  X   -0.248579  -1.451010  -1.766065  -0.377448   0.000000
   23  C  2  Y   -0.471905  -2.157618   2.899223   2.350911   0.000000
   24  C  2  Z    0.000000   0.000000   0.000000   0.000000  -0.072404
   25  C  2 XX   -0.004054   0.018433  -0.069874   0.115409   0.000000
   26  C  2 YY   -0.038961   0.111989   0.078491   0.051215   0.000000
   27  C  2 ZZ    0.033056   0.011305   0.019361  -0.108969   0.000000
   28  C  2 XY   -0.016772  -0.124809   0.069110  -0.031642   0.000000
   29  C  2 XZ    0.000000   0.000000   0.000000   0.000000   0.103464
   30  C  2 YZ    0.000000   0.000000   0.000000   0.000000   0.548205
   31  C  3  S    0.038257   0.037878   0.009534  -0.138387   0.000000
   32  C  3  S   -1.057293   0.463060   0.431830  -1.891073   0.000000
   33  C  3  X    0.115595   0.081186   0.292051   0.079370   0.000000
   34  C  3  Y    0.404763   0.025364   0.266038  -0.075824   0.000000
   35  C  3  Z    0.000000   0.000000   0.000000   0.000000   0.117150
   36  C  3  S    2.102392  -1.546675   1.112521   6.855105   0.000000
   37  C  3  X   -0.320150  -0.215562  -0.326243  -0.156081   0.000000
   38  C  3  Y   -0.781981  -0.142101   0.740626   1.501671   0.000000
   39  C  3  Z    0.000000   0.000000   0.000000   0.000000   0.156044
   40  C  3 XX   -0.014747   0.017922   0.034802  -0.099664   0.000000
   41  C  3 YY   -0.125229   0.063912   0.124037   0.017336   0.000000
   42  C  3 ZZ    0.009489   0.013533  -0.084877  -0.159827   0.000000
   43  C  3 XY   -0.000440   0.040409  -0.120675  -0.026307   0.000000
   44  C  3 XZ    0.000000   0.000000   0.000000   0.000000  -0.327200
   45  C  3 YZ    0.000000   0.000000   0.000000   0.000000  -0.468719
   46  H  4  S   -0.384242   0.068220  -0.676155  -0.174616   0.000000
   47  H  4  S    0.806040  -0.131806  -0.996061  -0.489536   0.000000
   48  H  5  S   -0.373763  -0.278311   0.664669   0.069039   0.000000
   49  H  5  S    0.894850  -0.462070   0.832642  -0.241995   0.000000
   50  H  6  S   -0.028387   0.307726  -0.609274  -0.014009   0.000000
   51  H  6  S    0.121102   0.451466  -0.891193  -0.097308   0.000000
   52  H  7  S    0.484596   0.174037   0.039687  -0.501205   0.160561
   53  H  7  S   -0.888438   0.272740   0.284121  -0.539980  -0.029149
   54  H  8  S    0.484596   0.174037   0.039687  -0.501205  -0.160561
   55  H  8  S   -0.888438   0.272740   0.284121  -0.539980   0.029149
   56  H  9  S    0.418525   0.070112   0.072754  -0.513786   0.000000
   57  H  9  S   -1.090118  -0.055775  -0.204521  -0.804862   0.000000

                     41         42         43         44         45
                    1.4875     1.7125     1.8105     1.9057     1.9535
                     A''        A''        A'         A'         A'  
    1  C  1  S    0.000000   0.000000   0.015239  -0.000542  -0.024101
    2  C  1  S    0.000000   0.000000  -0.110064   0.004005  -0.169713
    3  C  1  X    0.000000   0.000000   0.170396   0.207577   0.086783
    4  C  1  Y    0.000000   0.000000   0.199914  -0.082596   0.216555
    5  C  1  Z   -0.122679  -0.021209   0.000000   0.000000   0.000000
    6  C  1  S    0.000000   0.000000  -1.381631  -0.786653  -0.037976
    7  C  1  X    0.000000   0.000000  -0.004785   0.023669  -0.041887
    8  C  1  Y    0.000000   0.000000   0.622595   0.554722   0.496093
    9  C  1  Z    0.037164   0.061122   0.000000   0.000000   0.000000
   10  C  1 XX    0.000000   0.000000  -0.118041   0.324858  -0.072044
   11  C  1 YY    0.000000   0.000000  -0.007770  -0.172248   0.574465
   12  C  1 ZZ    0.000000   0.000000   0.064521  -0.180058  -0.584695
   13  C  1 XY    0.000000   0.000000   0.185808  -0.254710  -0.031912
   14  C  1 XZ   -0.241660  -0.594477   0.000000   0.000000   0.000000
   15  C  1 YZ   -0.507581   0.690578   0.000000   0.000000   0.000000
   16  C  2  S    0.000000   0.000000  -0.008131  -0.017024  -0.043673
   17  C  2  S    0.000000   0.000000  -0.024988  -0.600758  -0.429723
   18  C  2  X    0.000000   0.000000  -0.062978   0.034570  -0.143183
   19  C  2  Y    0.000000   0.000000  -0.032463   0.207554   0.125213
   20  C  2  Z   -0.147041  -0.041049   0.000000   0.000000   0.000000
   21  C  2  S    0.000000   0.000000   0.492636   1.563783   1.690679
   22  C  2  X    0.000000   0.000000   1.845505   1.062949   0.420031
   23  C  2  Y    0.000000   0.000000   0.034431  -1.030971  -0.651639
   24  C  2  Z   -0.021516  -0.158244   0.000000   0.000000   0.000000
   25  C  2 XX    0.000000   0.000000   0.148441  -0.326492   0.498831
   26  C  2 YY    0.000000   0.000000  -0.306058   0.528155   0.040032
   27  C  2 ZZ    0.000000   0.000000   0.172268  -0.243280  -0.579874
   28  C  2 XY    0.000000   0.000000   0.319750   0.208822  -0.258759
   29  C  2 XZ    0.650225   0.141127   0.000000   0.000000   0.000000
   30  C  2 YZ   -0.147174  -0.024468   0.000000   0.000000   0.000000
   31  C  3  S    0.000000   0.000000  -0.016069   0.041577   0.026326
   32  C  3  S    0.000000   0.000000   0.041408  -0.138311   0.409164
   33  C  3  X    0.000000   0.000000   0.091262   0.026717  -0.020939
   34  C  3  Y    0.000000   0.000000   0.080077  -0.272387   0.006709
   35  C  3  Z   -0.040232  -0.066784   0.000000   0.000000   0.000000
   36  C  3  S    0.000000   0.000000   0.053869  -1.120960  -1.598258
   37  C  3  X    0.000000   0.000000  -0.642308  -0.340936  -0.363369
   38  C  3  Y    0.000000   0.000000  -0.069801  -0.210603  -0.507158
   39  C  3  Z    0.170879   0.245829   0.000000   0.000000   0.000000
   40  C  3 XX    0.000000   0.000000   0.379369  -0.114703   0.237501
   41  C  3 YY    0.000000   0.000000  -0.151928   0.455513   0.017189
   42  C  3 ZZ    0.000000   0.000000  -0.202184  -0.358197  -0.294196
   43  C  3 XY    0.000000   0.000000  -0.752555  -0.331699  -0.054031
   44  C  3 XZ    0.218039   0.223532   0.000000   0.000000   0.000000
   45  C  3 YZ    0.142280   0.326280   0.000000   0.000000   0.000000
   46  H  4  S    0.000000   0.000000   0.330193  -0.310329   0.006356
   47  H  4  S    0.000000   0.000000   0.173222   0.318460   0.086197
   48  H  5  S    0.000000   0.000000  -0.068400   0.139741  -0.562713
   49  H  5  S    0.000000   0.000000  -0.107261  -0.183496  -0.088036
   50  H  6  S    0.000000   0.000000   0.448563   0.408321  -0.453613
   51  H  6  S    0.000000   0.000000   0.618073   0.312637   0.173531
   52  H  7  S    0.015566   0.013277  -0.095661   0.216026   0.216330
   53  H  7  S    0.132270   0.096373   0.115534   0.012874   0.137280
   54  H  8  S   -0.015566  -0.013277  -0.095661   0.216026   0.216330
   55  H  8  S   -0.132270  -0.096373   0.115534   0.012874   0.137280
   56  H  9  S    0.000000   0.000000  -0.086364   0.222041  -0.089655
   57  H  9  S    0.000000   0.000000  -0.177106  -0.110319  -0.010415

                     46         47         48         49         50
                    2.1314     2.1444     2.1976     2.2137     2.2893
                     A''        A'         A'         A''        A'  
    1  C  1  S    0.000000  -0.038542  -0.026137   0.000000  -0.019128
    2  C  1  S    0.000000  -0.384669  -0.190394   0.000000  -0.098575
    3  C  1  X    0.000000   0.160266   0.018034   0.000000   0.094678
    4  C  1  Y    0.000000   0.073254  -0.011104   0.000000  -0.012148
    5  C  1  Z   -0.007128   0.000000   0.000000   0.027876   0.000000
    6  C  1  S    0.000000   1.078333   1.393714   0.000000   0.077964
    7  C  1  X    0.000000  -0.536237  -0.045017   0.000000   0.075639
    8  C  1  Y    0.000000  -0.403748  -0.104468   0.000000  -0.400860
    9  C  1  Z    0.113637   0.000000   0.000000   0.214636   0.000000
   10  C  1 XX    0.000000   0.433748   0.134969   0.000000   0.599827
   11  C  1 YY    0.000000  -0.162836   0.450918   0.000000  -0.416407
   12  C  1 ZZ    0.000000  -0.463890  -0.525979   0.000000  -0.254513
   13  C  1 XY    0.000000   0.455923  -0.602343   0.000000  -0.242663
   14  C  1 XZ    0.060978   0.000000   0.000000  -0.435678   0.000000
   15  C  1 YZ   -0.218438   0.000000   0.000000  -0.422821   0.000000
   16  C  2  S    0.000000  -0.021877   0.016747   0.000000  -0.025422
   17  C  2  S    0.000000  -0.273684   0.500235   0.000000   0.062105
   18  C  2  X    0.000000  -0.224630   0.198448   0.000000  -0.050610
   19  C  2  Y    0.000000  -0.204844  -0.098141   0.000000  -0.380890
   20  C  2  Z    0.024552   0.000000   0.000000  -0.117072   0.000000
   21  C  2  S    0.000000  -0.060240  -0.972839   0.000000   0.388012
   22  C  2  X    0.000000  -0.310222  -0.601115   0.000000   0.209198
   23  C  2  Y    0.000000  -0.166003  -0.395783   0.000000  -0.075368
   24  C  2  Z   -0.413141   0.000000   0.000000  -0.202376   0.000000
   25  C  2 XX    0.000000   0.179636  -0.242649   0.000000  -0.014631
   26  C  2 YY    0.000000  -0.142588  -0.021509   0.000000   0.002588
   27  C  2 ZZ    0.000000  -0.269519   0.352705   0.000000  -0.027661
   28  C  2 XY    0.000000   0.461260   0.021660   0.000000   0.136019
   29  C  2 XZ   -0.296727   0.000000   0.000000  -0.495205   0.000000
   30  C  2 YZ    0.675057   0.000000   0.000000   0.083991   0.000000
   31  C  3  S    0.000000   0.009338   0.000779   0.000000   0.019861
   32  C  3  S    0.000000   0.194517   0.146608   0.000000   0.154940
   33  C  3  X    0.000000   0.101387   0.089828   0.000000  -0.050952
   34  C  3  Y    0.000000   0.046105   0.023232   0.000000  -0.036007
   35  C  3  Z    0.061674   0.000000   0.000000  -0.103993   0.000000
   36  C  3  S    0.000000  -0.484055  -0.227640   0.000000  -0.495423
   37  C  3  X    0.000000   0.290866   0.248311   0.000000  -0.538692
   38  C  3  Y    0.000000  -0.232019  -0.246133   0.000000  -0.447305
   39  C  3  Z    0.734288   0.000000   0.000000  -0.163793   0.000000
   40  C  3 XX    0.000000  -0.460709  -0.209898   0.000000   0.824340
   41  C  3 YY    0.000000  -0.044143  -0.347909   0.000000  -0.555271
   42  C  3 ZZ    0.000000   0.494271   0.532805   0.000000  -0.232221
   43  C  3 XY    0.000000   0.114029  -0.275091   0.000000   0.353132
   44  C  3 XZ    0.761148   0.000000   0.000000  -0.513028   0.000000
   45  C  3 YZ    0.243323   0.000000   0.000000   0.686963   0.000000
   46  H  4  S    0.000000  -0.044643  -0.520667   0.000000  -0.489855
   47  H  4  S    0.000000  -0.065220  -0.070344   0.000000   0.076572
   48  H  5  S    0.000000   0.088478  -0.395282   0.000000   0.321016
   49  H  5  S    0.000000  -0.042704  -0.019532   0.000000   0.067110
   50  H  6  S    0.000000   0.092925   0.193081   0.000000   0.119538
   51  H  6  S    0.000000  -0.188074  -0.021365   0.000000   0.004994
   52  H  7  S    0.394085  -0.129199  -0.250357  -0.468881   0.197485
   53  H  7  S    0.140388  -0.001009   0.050093   0.105567  -0.000173
   54  H  8  S   -0.394085  -0.129199  -0.250357   0.468881   0.197485
   55  H  8  S   -0.140388  -0.001009   0.050093  -0.105567  -0.000173
   56  H  9  S    0.000000   0.364607   0.296175   0.000000  -0.619813
   57  H  9  S    0.000000   0.035084  -0.056416   0.000000  -0.014225

                     51         52         53         54         55
                    2.4879     2.5318     2.7551     2.8622     4.1184
                     A''        A'         A'         A'         A'  
    1  C  1  S    0.000000   0.048663  -0.053781   0.014993  -0.314403
    2  C  1  S    0.000000   0.083030   0.277578  -0.130756   2.150528
    3  C  1  X    0.000000   0.122086  -0.603511   0.242324  -0.075473
    4  C  1  Y    0.000000   0.082600  -0.388393   0.049984  -0.058524
    5  C  1  Z   -0.120094   0.000000   0.000000   0.000000   0.000000
    6  C  1  S    0.000000  -1.557618   1.818585  -0.335142   0.806518
    7  C  1  X    0.000000   0.432125  -1.076519  -0.106294   0.072976
    8  C  1  Y    0.000000   0.389997  -0.411269   0.467150   0.197820
    9  C  1  Z   -0.187079   0.000000   0.000000   0.000000   0.000000
   10  C  1 XX    0.000000   0.032380   0.440590  -0.752415  -1.212581
   11  C  1 YY    0.000000  -0.413840   0.055893   0.622839  -1.251554
   12  C  1 ZZ    0.000000   0.490108  -0.445854   0.131519  -1.214328
   13  C  1 XY    0.000000  -0.227176   0.888231   0.144371   0.027967
   14  C  1 XZ    0.627687   0.000000   0.000000   0.000000   0.000000
   15  C  1 YZ    0.314099   0.000000   0.000000   0.000000   0.000000
   16  C  2  S    0.000000  -0.091624   0.033068  -0.065921  -0.310917
   17  C  2  S    0.000000  -0.114263  -0.281054   0.159809   2.018310
   18  C  2  X    0.000000   0.120930  -0.604765   0.132350   0.081051
   19  C  2  Y    0.000000  -0.158327  -0.449211  -0.019517   0.061303
   20  C  2  Z    0.053602   0.000000   0.000000   0.000000   0.000000
   21  C  2  S    0.000000   2.712571  -1.273363   1.317849   0.875173
   22  C  2  X    0.000000   0.592965  -0.879105   0.209281   0.032612
   23  C  2  Y    0.000000  -0.581191  -1.135826  -0.712971  -0.123589
   24  C  2  Z    0.203724   0.000000   0.000000   0.000000   0.000000
   25  C  2 XX    0.000000   0.269796  -0.840907  -0.585315  -1.164025
   26  C  2 YY    0.000000   0.470872   0.474718   0.754684  -1.149742
   27  C  2 ZZ    0.000000  -0.811958   0.323529  -0.371361  -1.204480
   28  C  2 XY    0.000000  -0.245529  -0.801912   0.702909   0.029424
   29  C  2 XZ    0.605353   0.000000   0.000000   0.000000   0.000000
   30  C  2 YZ    0.601402   0.000000   0.000000   0.000000   0.000000
   31  C  3  S    0.000000   0.056892   0.025514   0.051967  -0.165521
   32  C  3  S    0.000000   0.068951  -0.020979  -0.173735   0.984018
   33  C  3  X    0.000000  -0.017978  -0.013543  -0.002470  -0.008274
   34  C  3  Y    0.000000  -0.267384  -0.158649  -0.329943   0.080197
   35  C  3  Z   -0.031334   0.000000   0.000000   0.000000   0.000000
   36  C  3  S    0.000000  -1.564768  -0.671552  -1.020642   0.506630
   37  C  3  X    0.000000   0.080823  -0.024382   0.046659  -0.001994
   38  C  3  Y    0.000000  -0.848936  -0.437010  -0.543662  -0.175626
   39  C  3  Z   -0.145694   0.000000   0.000000   0.000000   0.000000
   40  C  3 XX    0.000000   0.078262   0.186823   0.423693  -0.648689
   41  C  3 YY    0.000000  -0.594293  -0.308621  -0.499099  -0.488694
   42  C  3 ZZ    0.000000   0.628940   0.147945   0.239753  -0.656887
   43  C  3 XY    0.000000  -0.426040  -0.211849   0.267711  -0.020326
   44  C  3 XZ   -0.371557   0.000000   0.000000   0.000000   0.000000
   45  C  3 YZ    0.543813   0.000000   0.000000   0.000000   0.000000
   46  H  4  S    0.000000   0.045482   0.129422   0.340848   0.147569
   47  H  4  S    0.000000   0.114791   0.126625   0.074974  -0.242584
   48  H  5  S    0.000000   0.328663  -0.076092  -0.353152   0.122700
   49  H  5  S    0.000000  -0.031647   0.049948  -0.012444  -0.350131
   50  H  6  S    0.000000  -0.399192   0.010763   0.349856   0.133976
   51  H  6  S    0.000000   0.227862   0.030000  -0.095346  -0.215613
   52  H  7  S   -0.318300  -0.181303  -0.022948   0.002660   0.070122
   53  H  7  S    0.084580   0.062075   0.005327  -0.012954  -0.213737
   54  H  8  S    0.318300  -0.181303  -0.022948   0.002660   0.070122
   55  H  8  S   -0.084580   0.062075   0.005327  -0.012954  -0.213737
   56  H  9  S    0.000000   0.254278  -0.000021  -0.151760   0.059006
   57  H  9  S    0.000000   0.010922  -0.104181   0.129637  -0.165653

                     56         57
                    4.2005     4.4028
                     A'         A'  
    1  C  1  S    0.310183   0.173098
    2  C  1  S   -1.836101  -1.015891
    3  C  1  X   -0.164424  -0.248458
    4  C  1  Y   -0.129678  -0.130095
    5  C  1  Z    0.000000   0.000000
    6  C  1  S   -1.680064  -1.213586
    7  C  1  X    0.111004   0.090627
    8  C  1  Y    0.220767   0.085308
    9  C  1  Z    0.000000   0.000000
   10  C  1 XX    1.321646   0.955435
   11  C  1 YY    1.230522   0.728956
   12  C  1 ZZ    1.176678   0.603665
   13  C  1 XY    0.139099   0.153179
   14  C  1 XZ    0.000000   0.000000
   15  C  1 YZ    0.000000   0.000000
   16  C  2  S   -0.150829  -0.331756
   17  C  2  S    0.783671   2.013160
   18  C  2  X   -0.221309  -0.209829
   19  C  2  Y   -0.189695   0.017005
   20  C  2  Z    0.000000   0.000000
   21  C  2  S    0.789905   2.091297
   22  C  2  X    0.299490   0.090411
   23  C  2  Y    0.207427  -0.183966
   24  C  2  Z    0.000000   0.000000
   25  C  2 XX   -0.779219  -1.438502
   26  C  2 YY   -0.444706  -1.628922
   27  C  2 ZZ   -0.545075  -1.224631
   28  C  2 XY   -0.129985  -0.198151
   29  C  2 XZ    0.000000   0.000000
   30  C  2 YZ    0.000000   0.000000
   31  C  3  S   -0.355680   0.304485
   32  C  3  S    2.022204  -1.776411
   33  C  3  X   -0.014515  -0.011635
   34  C  3  Y   -0.015673   0.162793
   35  C  3  Z    0.000000   0.000000
   36  C  3  S    1.724282  -2.081200
   37  C  3  X    0.002836   0.021821
   38  C  3  Y   -0.030517  -0.189770
   39  C  3  Z    0.000000   0.000000
   40  C  3 XX   -1.336150   1.145707
   41  C  3 YY   -1.308701   1.463005
   42  C  3 ZZ   -1.373946   1.110977
   43  C  3 XY   -0.009427  -0.010121
   44  C  3 XZ    0.000000   0.000000
   45  C  3 YZ    0.000000   0.000000
   46  H  4  S   -0.066882  -0.073874
   47  H  4  S    0.339902   0.232063
   48  H  5  S   -0.106308  -0.049453
   49  H  5  S    0.229975   0.209169
   50  H  6  S    0.075242   0.073163
   51  H  6  S   -0.096261  -0.323201
   52  H  7  S    0.090764  -0.026071
   53  H  7  S   -0.385706   0.287493
   54  H  8  S    0.090764  -0.026071
   55  H  8  S   -0.385706   0.287493
   56  H  9  S    0.084072  -0.043974
   57  H  9  S   -0.345483   0.361523
 ...... END OF RHF CALCULATION ......
 STEP CPU TIME =     6.55 TOTAL CPU TIME =          6.6 (      0.1 MIN)
 TOTAL WALL CLOCK TIME=          7.5 SECONDS, CPU UTILIZATION IS    88.46%

     ---------------------------------------------------------------------
     PROPERTIES FOR THE B3LYP    DFT FUNCTIONAL (RHF  TYPE) DENSITY MATRIX
     ---------------------------------------------------------------------

          -----------------
          ENERGY COMPONENTS
          -----------------

         WAVEFUNCTION NORMALIZATION =       1.0000000000

                ONE ELECTRON ENERGY =    -297.2986639031
                TWO ELECTRON ENERGY =     108.5664366593
           NUCLEAR REPULSION ENERGY =      70.9161232826
                                      ------------------
                       TOTAL ENERGY =    -117.8161039612

 ELECTRON-ELECTRON POTENTIAL ENERGY =     108.5664366593
  NUCLEUS-ELECTRON POTENTIAL ENERGY =    -414.0462084559
   NUCLEUS-NUCLEUS POTENTIAL ENERGY =      70.9161232826
                                      ------------------
             TOTAL POTENTIAL ENERGY =    -234.5636485140
               TOTAL KINETIC ENERGY =     116.7475445528
                 VIRIAL RATIO (V/T) =       2.0091527356

          ---------------------------------------
          MULLIKEN AND LOWDIN POPULATION ANALYSES
          ---------------------------------------

     ATOMIC MULLIKEN POPULATION IN EACH MOLECULAR ORBITAL

                      1          2          3          4          5

                  2.000000   2.000000   2.000000   2.000000   2.000000

    1             0.002778   0.000030   1.996386   0.485744   0.572606
    2             1.995415   0.001639   0.002774   0.758381   0.272771
    3             0.001435   1.996727   0.000006   0.542836   0.710711
    4            -0.000014   0.000001   0.000422   0.030138   0.060159
    5             0.000009  -0.000000   0.000414   0.025340   0.086770
    6             0.000352  -0.000002  -0.000001   0.048217   0.003235
    7             0.000014   0.000530   0.000000   0.035663   0.091286
    8             0.000014   0.000530   0.000000   0.035663   0.091286
    9            -0.000004   0.000545   0.000000   0.038019   0.111177

                      6          7          8          9         10

                  2.000000   2.000000   2.000000   2.000000   2.000000

    1             0.480920   0.575163   0.568645   0.035735   0.331143
    2             0.578408   0.394872   0.392660   0.161399   0.269113
    3             0.247168   0.370896   0.466838   1.028772   0.653552
    4             0.199559   0.021301   0.318912   0.000000   0.000530
    5             0.088348   0.317175   0.010306   0.000000   0.158688
    6             0.272193   0.142367   0.011629   0.000000   0.044317
    7             0.059126   0.000607   0.096436   0.387047   0.039248
    8             0.059126   0.000607   0.096436   0.387047   0.039248
    9             0.015153   0.177013   0.038137   0.000000   0.464160

                     11         12

                  2.000000   2.000000

    1             0.269831   1.004906
    2             0.422185   0.815988
    3             0.401487   0.063172
[...]
               TOTAL  0.05217006 13.91840210  0.41033469  0.42200898  0.40941276

                            6           7           8           9          10
       FREQUENCY:         3.86       10.06      416.10      590.37      924.94  
        SYMMETRY:         A'          A''         A'          A''         A'  
    REDUCED MASS:      2.58148     1.42571     1.98863     1.30991     2.03491
    IR INTENSITY:      0.00186     0.00002     0.01017     0.27216     0.01030

  1   C            X -0.12123276  0.00013985  0.01362663 -0.00000158 -0.01687969
                   Y  0.09925873  0.00006941  0.11663380 -0.00000280 -0.11212379
                   Z  0.00002416 -0.05297647  0.00000233  0.04022839 -0.00001364
  2   C            X -0.03145343  0.00009061  0.12010197 -0.00000484  0.02443999
                   Y -0.04357830  0.00014778 -0.06723652 -0.00000018 -0.09593938
                   Z -0.00017533  0.13346172 -0.00000404 -0.13823599  0.00000205
  3   C            X  0.15884273 -0.00001356 -0.08666274 -0.00000013  0.00124876
                   Y -0.05279845  0.00015281 -0.06800085 -0.00000171  0.15250432
                   Z -0.00054125 -0.07775901  0.00000026  0.01588564  0.00000397
  4   H            X -0.06094742  0.00010677  0.13948072 -0.00000538  0.15996329
                   Y  0.22346771  0.00000124  0.37887980 -0.00001064  0.26548135
                   Z -0.00006715 -0.38187438  0.00000088 -0.33662668  0.00004208
  5   H            X -0.25890360  0.00021539 -0.27169327  0.00000543 -0.48186110
                   Y  0.09808016  0.00007005  0.11602168 -0.00000294 -0.11879287
                   Z  0.00028674  0.11545541  0.00000787  0.59125040  0.00007107
  6   H            X -0.09876860  0.00012748  0.11139512 -0.00000538  0.09611143
                   Y -0.16349554  0.00021349 -0.07691478 -0.00000108  0.02106530
                   Z -0.00006904  0.46352948 -0.00000038  0.31376950 -0.00000733
  7   H            X  0.21252058 -0.22602627 -0.18632590 -0.04002703  0.04791027
                   Y  0.00942494  0.13430623 -0.18052660 -0.24323409  0.19838580
                   Z -0.00067452 -0.26893107 -0.00177123  0.11189618  0.00503407
  8   H            X  0.21244578  0.22594035 -0.18630062  0.04003228  0.04790731
                   Y  0.00900081 -0.13406850 -0.18051239  0.24323647  0.19835721
                   Z -0.00057137 -0.26893108  0.00176493  0.11189593 -0.00503907
  9   H            X  0.20319503 -0.00003785 -0.16680848  0.00000202  0.02493481
                   Y -0.18267719  0.00022394  0.16416571 -0.00000803  0.09740179
                   Z -0.00066945  0.13388125  0.00002023  0.18577736 -0.00001088

 TRANS. SAYVETZ    X  0.28505991  0.00293122  0.00015400 -0.00007661 -0.00014721
                   Y  0.02833611  0.00519237 -0.00039915 -0.00007681  0.00037168
                   Z -0.01008757 -0.17577437  0.00000504  0.00015176 -0.00000088
               TOTAL  0.28664236  0.17587547  0.00042786  0.00018654  0.00039977

   ROT. SAYVETZ    X  0.02169346  4.36700258 -0.00001411 -0.00815380  0.00000373
                   Y -0.00919058  4.71041569  0.00001339  0.00405548 -0.00000257
                   Z 14.94700206 -0.00819036 -0.02944336  0.00003449 -0.00156886
               TOTAL 14.94702063  6.42330092  0.02944337  0.00910673  0.00156887

                           11          12          13          14          15
       FREQUENCY:       931.79      981.35     1023.24     1066.13     1184.38  
        SYMMETRY:         A''         A'          A''         A''         A'  
    REDUCED MASS:      1.33193     1.32992     1.05247     1.47934     1.73311
    IR INTENSITY:      0.73077     0.01411     0.40136     0.00284     0.14011

  1   C            X  0.00000135 -0.06352909 -0.00000124 -0.00000067  0.02086074
                   Y  0.00001122  0.00008359 -0.00000191 -0.00000140 -0.07515984
                   Z -0.14305804  0.00000119 -0.01071353 -0.02229561 -0.00000002
  2   C            X -0.00000162  0.02233159 -0.00000043 -0.00000068 -0.07864503
                   Y  0.00000943 -0.05218965 -0.00000299 -0.00000261  0.11433107
                   Z  0.03619638 -0.00000108 -0.02704185  0.12350393  0.00000040
  3   C            X  0.00000060  0.09341302  0.00000109  0.00000028  0.09535124
                   Y -0.00001434  0.07777404  0.00000332  0.00000239 -0.06032244
                   Z  0.01900923  0.00000177 -0.05489406 -0.11509239 -0.00000068
  4   H            X -0.00001613 -0.18416660 -0.00000166 -0.00000117  0.15728475
                   Y -0.00002614 -0.24852751 -0.00000255 -0.00000222  0.22434136
                   Z  0.54517945 -0.00001285  0.54048691 -0.05086713 -0.00000010
  5   H            X  0.00004789  0.15858594 -0.00000410 -0.00000320 -0.31134095
                   Y  0.00001192 -0.00301900 -0.00000221 -0.00000168 -0.07328503
                   Z  0.64135396  0.00000243 -0.32305999  0.05429838 -0.00000050
  6   H            X -0.00000911 -0.11545748 -0.00000248 -0.00000244  0.04907634
                   Y -0.00000293 -0.30227157 -0.00000679 -0.00000584  0.34594533
                   Z -0.05895876 -0.00000520  0.66413884 -0.34759245  0.00000124
  7   H            X -0.00253103 -0.19718249  0.00718716  0.03855423 -0.16177554
                   Y  0.08448017 -0.17406044 -0.21329303 -0.46032825 -0.24563375
                   Z -0.02285043 -0.03910140  0.05951117  0.13493333 -0.05287070
  8   H            X  0.00251876 -0.19718366 -0.00719093 -0.03855527 -0.16177682
                   Y -0.08452169 -0.17407242  0.21329501  0.46033226 -0.24562671
                   Z -0.02284890  0.03909919  0.05951217  0.13493379  0.05287334
  9   H            X -0.00000307 -0.08631788 -0.00000073 -0.00000018 -0.01870553
                   Y -0.00000506  0.59622203  0.00000878  0.00000396  0.24599798
                   Z -0.03582265 -0.00000493  0.10263030  0.23963989  0.00000018

 TRANS. SAYVETZ    X  0.00001130 -0.00000083 -0.00001981 -0.00002100  0.00006597
                   Y  0.00001136 -0.00010544 -0.00001977 -0.00002115 -0.00010545
                   Z  0.00000885 -0.00000034  0.00005891  0.00003076 -0.00000014
               TOTAL  0.00001830  0.00010544  0.00006522  0.00004283  0.00012438

   ROT. SAYVETZ    X  0.00412411  0.00000154 -0.00200989 -0.00015559  0.00000019
                   Y -0.00058567 -0.00000143  0.00156987 -0.00037019 -0.00000090
                   Z -0.00000470 -0.00464628  0.00000848  0.00000898 -0.00252810
               TOTAL  0.00416550  0.00464628  0.00255033  0.00040166  0.00252810

                           16          17          18          19          20
       FREQUENCY:      1344.08     1434.20     1471.77     1521.22     1522.68  
        SYMMETRY:         A'          A'          A'          A'          A'' 
    REDUCED MASS:      1.24489     1.18219     1.22332     1.05114     1.04420
    IR INTENSITY:      0.01496     0.02151     0.04382     0.10768     0.12278

  1   C            X -0.09901701  0.00292997 -0.03359646 -0.01195686 -0.00000086
                   Y  0.01979480 -0.00140356 -0.00042631 -0.01534079 -0.00000125
                   Z -0.00000002  0.00000000 -0.00000001 -0.00000018  0.00185770
  2   C            X  0.06859079 -0.03140218 -0.06017069 -0.00877786 -0.00000208
                   Y -0.04331797 -0.01981135 -0.08684134  0.01762463  0.00000019
                   Z  0.00000021 -0.00000003  0.00000012  0.00000153 -0.01626221
  3   C            X  0.01230759  0.01323832  0.01679505 -0.04942120 -0.00000424
                   Y -0.01988136 -0.10887437  0.05876072 -0.02325477 -0.00000160
                   Z -0.00000031  0.00000000  0.00000010  0.00000478 -0.05386475
  4   H            X -0.25322777  0.10889811  0.21705233  0.02630935  0.00000245
                   Y -0.28847580  0.19459638  0.47783777  0.06250947  0.00000536
                   Z -0.00000044 -0.00000001 -0.00000019  0.00000033 -0.00431476
  5   H            X -0.01852066  0.20920187  0.62245371  0.03434253  0.00000367
                   Y  0.00992035  0.00870635  0.02132209 -0.01467863 -0.00000123
                   Z -0.00000013  0.00000005 -0.00000003 -0.00000090  0.01018535
  6   H            X  0.45910315 -0.01910278  0.11819305 -0.00724433  0.00000088
                   Y  0.64630386  0.01209090  0.23274384  0.02201796  0.00000583
                   Z  0.00000154  0.00000001  0.00000052  0.00000000  0.00366874
  7   H            X  0.01987664  0.02118683 -0.05350619  0.48166008  0.38068531
                   Y  0.04301807  0.45346283 -0.14961265 -0.12644454  0.28311615
                   Z -0.02323913 -0.24342680  0.05694483  0.33532669  0.04829574
  8   H            X  0.01987658  0.02118627 -0.05350359  0.48172915 -0.38059762
                   Y  0.04302390  0.45346219 -0.14960891 -0.12639165 -0.28314137
                   Z  0.02324098  0.24342689 -0.05694462 -0.33533511  0.04823351
  9   H            X -0.01140069 -0.15998796  0.06562286 -0.18142751 -0.00001626
                   Y  0.06316995  0.42676354 -0.09302067  0.43270150  0.00003992
                   Z -0.00000163  0.00000060 -0.00000313 -0.00006463  0.70682725

 TRANS. SAYVETZ    X -0.00002843 -0.00000505 -0.00018288  0.00003503 -0.00000715
                   Y  0.00015125  0.00013237  0.00023606  0.00001693 -0.00000717
                   Z -0.00000023  0.00000044 -0.00000018 -0.00000064  0.00002564
               TOTAL  0.00015390  0.00013246  0.00029861  0.00003891  0.00002757

   ROT. SAYVETZ    X  0.00000028 -0.00000105  0.00000061  0.00000166 -0.00295517
                   Y -0.00000037  0.00000042 -0.00000027 -0.00000091  0.00194498
                   Z -0.00151475 -0.00403658 -0.00077767 -0.00104527  0.00000349
               TOTAL  0.00151475  0.00403658  0.00077767  0.00104527  0.00353780

                           21          22          23          24          25
       FREQUENCY:      1730.01     3042.78     3093.53     3119.34     3147.31  
        SYMMETRY:         A'          A'          A''         A'          A'  
    REDUCED MASS:      4.33576     1.03784     1.10090     1.09878     1.06322
    IR INTENSITY:      0.19114     0.52707     0.52965     0.35778     0.63536

  1   C            X -0.14637733  0.00087161  0.00000007  0.00238484 -0.04820374
                   Y -0.09874212  0.00034143  0.00000001  0.00273659 -0.02437512
                   Z -0.00000002  0.00000000  0.00041830  0.00000000 -0.00000000
  2   C            X  0.14673527 -0.00065462  0.00000000  0.01862703 -0.03140933
                   Y  0.12858296 -0.00048005 -0.00000001 -0.00896083  0.02296850
                   Z  0.00000006  0.00000000 -0.00024018 -0.00000000  0.00000000
  3   C            X -0.01380856 -0.01360112  0.00000013 -0.08404383 -0.01754018
                   Y -0.01988887  0.04943926 -0.00000001 -0.00515519 -0.00080993
                   Z -0.00000083 -0.00000003 -0.08769872 -0.00000008 -0.00000040
  4   H            X -0.00041545 -0.01405745 -0.00000272 -0.03475116  0.54944053
                   Y  0.24969065  0.00856105  0.00000140  0.01977268 -0.27716500
                   Z -0.00000123  0.00000000 -0.00278033  0.00000000 -0.00000014
  5   H            X  0.19096148  0.00239617  0.00000013  0.00209427 -0.01805204
                   Y -0.11460414 -0.01343233 -0.00000330 -0.05888979  0.53928511
                   Z  0.00000039 -0.00000000  0.00093953 -0.00000001  0.00000005
  6   H            X -0.00552105  0.00867938 -0.00000008 -0.21931007  0.41845436
                   Y -0.18790680 -0.00321662  0.00000006  0.12115352 -0.23607930
                   Z  0.00000258 -0.00000002 -0.00439848 -0.00000001  0.00000020
  7   H            X -0.01853638  0.28167970 -0.31351025  0.10745864  0.02554047
                   Y  0.01984374 -0.22768618  0.25692586 -0.10364527 -0.02551802
                   Z -0.01954838 -0.51083548  0.53460137 -0.22574560 -0.05279115
  8   H            X -0.01854478  0.28167991  0.31350972  0.10745929  0.02554258
                   Y  0.01984597 -0.22768634 -0.25692537 -0.10364583 -0.02551985
                   Z  0.01955181  0.51083581  0.53460027  0.22574666  0.05279580
  9   H            X  0.01237927 -0.40100871 -0.00000100  0.78755286  0.15577328
                   Y -0.10552107 -0.12363549 -0.00000030  0.26073921  0.05149345
                   Z  0.00000383 -0.00000001 -0.02083730 -0.00000002 -0.00000004

 TRANS. SAYVETZ    X  0.00017018  0.00000654 -0.00000180 -0.00000699 -0.00008868
                   Y -0.00015642 -0.00008217 -0.00000174 -0.00000844  0.00010504
                   Z -0.00000043 -0.00000000  0.00003256  0.00000001 -0.00000004
               TOTAL  0.00023115  0.00008243  0.00003265  0.00001096  0.00013747

   ROT. SAYVETZ    X  0.00000140  0.00000000 -0.00057456 -0.00000009  0.00000012
                   Y -0.00000121 -0.00000001  0.00000776  0.00000004 -0.00000010
                   Z  0.00057701  0.00023444  0.00000053  0.00022818  0.00028390
               TOTAL  0.00057701  0.00023444  0.00057462  0.00022818  0.00028390

                           26          27
       FREQUENCY:      3155.04     3229.20  
        SYMMETRY:         A'          A'  
    REDUCED MASS:      1.08922     1.11505
    IR INTENSITY:      0.21723     0.56245

  1   C            X  0.04187873  0.03992749
                   Y  0.00484691 -0.08354827
                   Z  0.00000000 -0.00000000
  2   C            X -0.06315826  0.01183164
                   Y  0.02774117 -0.00571079
                   Z -0.00000000  0.00000000
  3   C            X -0.01589994  0.00081840
                   Y -0.00309003  0.00087301
                   Z  0.00000020 -0.00000009
  4   H            X -0.43293855 -0.49562249
                   Y  0.21405091  0.23199528
                   Z  0.00000007 -0.00000007
  5   H            X  0.00897770 -0.00372639
                   Y -0.21617035  0.75552022
                   Z -0.00000003  0.00000003
  6   H            X  0.67670677 -0.11619042
                   Y -0.37642945  0.06413240
                   Z -0.00000011  0.00000012
  7   H            X  0.01589587  0.00034536
                   Y -0.01489177  0.00263116
                   Z -0.03451554  0.00196988
  8   H            X  0.01589496  0.00034560
                   Y -0.01489097  0.00263092
                   Z  0.03451331 -0.00196889
  9   H            X  0.15813887 -0.01118476
                   Y  0.05706445 -0.00446963
                   Z  0.00000001  0.00000000

 TRANS. SAYVETZ    X -0.00001416 -0.00000140
                   Y -0.00003935  0.00004306
                   Z  0.00000001 -0.00000002
               TOTAL  0.00004182  0.00004308

   ROT. SAYVETZ    X -0.00000001  0.00000006
                   Y  0.00000017 -0.00000005
                   Z  0.00037662  0.00009424
               TOTAL  0.00037662  0.00009424

 REFERENCE ON SAYVETZ CONDITIONS - A. SAYVETZ, J.CHEM.PHYS., 7, 383-389(1939).

 NOTE - THE MODES J,K ARE ORTHONORMALIZED ACCORDING TO
 SUM ON I   M(I) * (X(I,J)*X(I,K) + Y(I,J)*Y(I,K) + Z(I,J)*Z(I,K)) = DELTA(J,K)

  MODE FREQ(CM**-1)  SYMMETRY  RED. MASS  IR INTENS.
     1     220.416    A''      1.093045    0.013058
     2       4.951    A''      2.778833    0.002060
     3       0.499    A''      4.700263    0.000001
     4       0.176    A'       4.691122    0.000008
     5       0.402    A''      4.682116    0.000001
     6       3.860    A'       2.581479    0.001859
     7      10.059    A''      1.425711    0.000017
     8     416.102    A'       1.988632    0.010166
     9     590.370    A''      1.309909    0.272158
    10     924.945    A'       2.034912    0.010301
    11     931.793    A''      1.331931    0.730767
    12     981.345    A'       1.329923    0.014111
    13    1023.244    A''      1.052474    0.401356
    14    1066.126    A''      1.479344    0.002839
    15    1184.383    A'       1.733112    0.140113
    16    1344.076    A'       1.244888    0.014957
    17    1434.201    A'       1.182190    0.021513
    18    1471.768    A'       1.223323    0.043819
    19    1521.219    A'       1.051145    0.107681
    20    1522.683    A''      1.044203    0.122776
    21    1730.010    A'       4.335755    0.191143
    22    3042.775    A'       1.037837    0.527075
    23    3093.535    A''      1.100900    0.529645
    24    3119.336    A'       1.098776    0.357780
    25    3147.307    A'       1.063224    0.635363
    26    3155.039    A'       1.089219    0.217233
    27    3229.203    A'       1.115055    0.562449

     -------------------------------
     THERMOCHEMISTRY AT T=  298.15 K
     -------------------------------

 USING IDEAL GAS, RIGID ROTOR, HARMONIC NORMAL MODE APPROXIMATIONS.
 P=  1.01325E+05 PASCAL.
 ALL FREQUENCIES ARE SCALED BY   1.00000
 THE MOMENTS OF INERTIA ARE (IN AMU*BOHR**2)
             38.86818           196.19194           223.85186
 THE ROTATIONAL SYMMETRY NUMBER IS  1.0
 THE ROTATIONAL CONSTANTS ARE (IN GHZ)
     46.38983     9.19043     8.05483
   1 IMAGINARY FREQUENCY VIBRATION(S) IS(ARE) EXCLUDED
     FROM THE FOLLOWING THERMOCHEMICAL ANALYSIS.
      8 -     27 VIBRATIONAL MODES ARE USED IN THERMOCHEMISTRY.
 THE HARMONIC ZERO POINT ENERGY IS (SCALED BY   1.000)
        0.079575 HARTREE/MOLECULE    17464.730129 CM**-1/MOLECULE 
       49.934219 KCAL/MOL              208.924773 KJ/MOL

               Q               LN Q
 ELEC.     1.00000E+00       0.000000
 TRANS.    1.07166E+07      16.187301
 ROT.      1.47897E+04       9.601686
 VIB.      1.29258E+00       0.256641
 TOT.      2.04867E+11      26.045628

              E         H         G         CV        CP        S
           KJ/MOL    KJ/MOL    KJ/MOL   J/MOL-K   J/MOL-K   J/MOL-K
 ELEC.      0.000     0.000     0.000     0.000     0.000     0.000
 TRANS.     3.718     6.197   -40.127    12.472    20.786   155.374
 ROT.       3.718     3.718   -23.802    12.472    12.472    92.304
 VIB.     210.784   210.784   208.289    21.612    21.612     8.369
 TOTAL    218.221   220.700   144.359    46.555    54.869   256.047
 VIB. THERMAL CORRECTION E(T)-E(0) = H(T)-H(0) =      1859.107 J/MOL

              E         H         G         CV        CP        S
         KCAL/MOL  KCAL/MOL  KCAL/MOL CAL/MOL-K CAL/MOL-K CAL/MOL-K
 ELEC.      0.000     0.000     0.000     0.000     0.000     0.000
 TRANS.     0.889     1.481    -9.591     2.981     4.968    37.135
 ROT.       0.889     0.889    -5.689     2.981     2.981    22.061
 VIB.      50.379    50.379    49.782     5.165     5.165     2.000
 TOTAL     52.156    52.748    34.503    11.127    13.114    61.197
 VIB. THERMAL CORRECTION E(T)-E(0) = H(T)-H(0) =       444.337 CAL/MOL
 ......END OF NORMAL COORDINATE ANALYSIS......
 STEP CPU TIME =     0.00 TOTAL CPU TIME =        447.0 (      7.4 MIN)
 TOTAL WALL CLOCK TIME=        512.4 SECONDS, CPU UTILIZATION IS    87.24%
               1075896  WORDS OF DYNAMIC MEMORY USED
 EXECUTION OF GAMESS TERMINATED NORMALLY Tue Oct  4 20:54:46 2022
 DDI: 263640 bytes (0.3 MB / 0 MWords) used by master data server.

 ----------------------------------------
 CPU timing information for all processes
 ========================================
 0: 444.29 + 2.947 = 446.977
 ----------------------------------------
 ddikick.x: exited gracefully.
----- accounting info -----
Files used on the master node chemcompute-node-1.novalocal were:
-rw-r--r--. 1 chemcomp chemcomp      960 Oct  4 20:46 /scratch/120781/460734.F05
-rw-rw-r--. 1 chemcomp chemcomp 65536000 Oct  4 20:54 /scratch/120781/460734.F10
-rw-rw-r--. 1 chemcomp chemcomp  4614952 Oct  4 20:54 /scratch/120781/460734.F22
Tue Oct  4 20:54:49 UTC 2022
0.098u 0.039s 8:35.83 0.0%	0+0k 8+208io 0pf+0w
Finishing Up...
Looking for IR data...
Looking for Raman data...
vibramans not found
Looking for thermodynamics data...
Looking for UV-Vis data...
chemcompute.org
{'UTCtimestamp': '2022-10-04T20:54:51.639025', 'cluster': 'jetstream2', 'clusterJobNumber': '120781', 'status': 'COMPLETE', 'nodeList': 'chemcompute-node-1'}
120781
